 Gaussian 16, Revision A.03,
 Gaussian 16:  EM64L-G16RevA.03 25-Dec-2016

 ------------------------------
 #p m062x/cc-pVTZ irc=(calcall)
 ------------------------------

 ------------------------------
 Gaussian input prepared by ASE
 ------------------------------
 Symbolic Z-matrix:
 Charge =  0 Multiplicity = 2

 SCF Done:  E(UM062X) =  -305.944880745     A.U. after   20 cycles
 SCF Done:  E(UM062X) =  -305.944894307     A.U. after   14 cycles
 SCF Done:  E(UM062X) =  -305.944934459     A.U. after   14 cycles
 SCF Done:  E(UM062X) =  -305.945000058     A.U. after   14 cycles
 SCF Done:  E(UM062X) =  -305.945090528     A.U. after   14 cycles
 SCF Done:  E(UM062X) =  -305.945205344     A.U. after   14 cycles
 SCF Done:  E(UM062X) =  -305.945343369     A.U. after   14 cycles
 SCF Done:  E(UM062X) =  -305.945502917     A.U. after   14 cycles
 SCF Done:  E(UM062X) =  -305.945682064     A.U. after   14 cycles
 SCF Done:  E(UM062X) =  -305.945879215     A.U. after   14 cycles
 SCF Done:  E(UM062X) =  -305.944893239     A.U. after   18 cycles
 SCF Done:  E(UM062X) =  -305.944932050     A.U. after   14 cycles
 SCF Done:  E(UM062X) =  -305.944995708     A.U. after   14 cycles
 SCF Done:  E(UM062X) =  -305.945083345     A.U. after   14 cycles
 SCF Done:  E(UM062X) =  -305.945194619     A.U. after   14 cycles
 SCF Done:  E(UM062X) =  -305.945329188     A.U. after   14 cycles
 SCF Done:  E(UM062X) =  -305.945485986     A.U. after   14 cycles
 SCF Done:  E(UM062X) =  -305.945663030     A.U. after   14 cycles
 SCF Done:  E(UM062X) =  -305.945858002     A.U. after   14 cycles
 SCF Done:  E(UM062X) =  -305.946068858     A.U. after   14 cycles

                          Input orientation:
 ---------------------------------------------------------------------
 Center     Atomic      Atomic             Coordinates (Angstroms)
 Number     Number       Type             X           Y           Z
 ---------------------------------------------------------------------
      1          8           0       -0.513968   -1.071165   -0.162589
      2          8           0        1.751663   -0.011679    0.650605
      3          8           0        1.847165    0.442966   -0.571079
      4          6           0       -1.762581   -0.407309    0.044503
      5          6           0       -1.626307    1.115292    0.059655
      6          1           0       -2.134760   -0.783337    0.994787
      7          1           0       -2.460782   -0.728884   -0.729967
      8          1           0       -2.452271    1.590455   -0.467364
      9          1           0       -1.597625    1.512538    1.072865
     10          1           0       -0.148634   -0.776702   -1.005693
     11          1           0        0.886127   -0.499343    0.649436
     12          1           0       -0.700118    1.410755   -0.435982
 ---------------------------------------------------------------------

 Alpha  occ. eigenvalues --  -19.72492 -19.69529 -19.65314 -10.60401 -10.54080
 Alpha  occ. eigenvalues --   -1.32630  -1.17469  -0.96616  -0.86296  -0.73724
 Alpha  occ. eigenvalues --   -0.64100  -0.60514  -0.58209  -0.55845  -0.54741
 Alpha  occ. eigenvalues --   -0.52725  -0.47816  -0.45297  -0.41864  -0.38564
 Alpha  occ. eigenvalues --   -0.36737  -0.36299
 Alpha virt. eigenvalues --    0.05461   0.09272   0.10137   0.10678   0.12748
 Alpha virt. eigenvalues --    0.15313   0.17355   0.21105   0.21620   0.23789
 Alpha virt. eigenvalues --    0.27964   0.31050   0.31352   0.36670   0.37423

  Beta  occ. eigenvalues --  -19.71665 -19.68080 -19.65322 -10.60401 -10.54079
  Beta  occ. eigenvalues --   -1.29254  -1.17464  -0.91757  -0.86286  -0.73700
  Beta  occ. eigenvalues --   -0.62411  -0.60457  -0.54940  -0.53524  -0.52528
  Beta  occ. eigenvalues --   -0.47956  -0.47435  -0.45218  -0.41794  -0.38253
  Beta  occ. eigenvalues --   -0.33909
  Beta virt. eigenvalues --   -0.05014   0.05484   0.09344   0.10182   0.10680
  Beta virt. eigenvalues --    0.12906   0.15391   0.17427   0.21265   0.22135
  Beta virt. eigenvalues --    0.24697   0.28015   0.31077   0.31522   0.36690

 Mulliken charges and spin densities:
               1          2
     1  O   -0.404311  -0.001660
     2  O   -0.111859   0.303990
     3  O   -0.198495   0.712153
     4  C   -0.034543   0.000763
     5  C   -0.360377   0.001111
     6  H    0.117826  -0.000127
     7  H    0.110407   0.000016
     8  H    0.114361   0.000030
     9  H    0.124387   0.000362
    10  H    0.260878  -0.001728
    11  H    0.260893  -0.011688
    12  H    0.120834  -0.003223
 Sum of Mulliken charges =  -0.00000   1.00000

 Dipole moment (field-independent basis, Debye):
    X=             -3.1928    Y=             -0.1290    Z=             -0.1842  Tot=              3.2007
 Quadrupole moment (field-independent basis, Debye-Ang):
   XX=            -33.4618   YY=            -32.8174   ZZ=            -29.3099
   XY=             -2.0437   XZ=              0.2492   YZ=              0.4680

  Exact polarizability:   0.000   0.000   0.000   0.000   0.000   0.000
 Approx polarizability:  45.287   1.268  41.770  -1.293  -4.009  50.694

 Normal termination of Gaussian 16 at Sat Jun 22 15:48:13 2019.
