 Gaussian 16, Revision A.03,
 Gaussian 16:  EM64L-G16RevA.03 25-Dec-2016

 ----------------------------------------------------------------------
 #p m062x/cc-pVTZ opt=(calcfc,maxcycles=900) freq IOP(7/33=1,2/16=3) sc
 f=(maxcycle=900)
 ----------------------------------------------------------------------

 ------------------------------
 Gaussian input prepared by ASE
 ------------------------------
 Symbolic Z-matrix:
 Charge =  0 Multiplicity = 2

 SCF Done:  E(UM062X) =  -154.349917062     A.U. after   15 cycles
 SCF Done:  E(UM062X) =  -154.353163912     A.U. after   13 cycles
 SCF Done:  E(UM062X) =  -154.353513341     A.U. after   12 cycles
 SCF Done:  E(UM062X) =  -154.353574672     A.U. after   12 cycles
 SCF Done:  E(UM062X) =  -154.353580259     A.U. after   11 cycles
 SCF Done:  E(UM062X) =  -154.353580846     A.U. after    9 cycles
 Optimization completed.
    -- Stationary point found.
 Normal termination of Gaussian 16 at Wed May 22 18:36:47 2019.

 ----------------------------------------------------------------------
 #P Geom=AllCheck Guess=TCheck SCRF=Check Test GenChk UM062X/CC-pVTZ Fr
 eq
 ----------------------------------------------------------------------

 Structure from the checkpoint file:  "/scratch/harms.n/gauss_scrdir/Gau-17612.chk"
 ------------------------------
 Gaussian input prepared by ASE
 ------------------------------
 Charge =  0 Multiplicity = 2

                         Standard orientation:
 ---------------------------------------------------------------------
 Center     Atomic      Atomic             Coordinates (Angstroms)
 Number     Number       Type             X           Y           Z
 ---------------------------------------------------------------------
      1          8           0       -1.102885   -0.376961   -0.048670
      2          6           0       -0.010592    0.520587    0.032935
      3          6           0        1.246612   -0.254075   -0.023110
      4          1           0       -0.037518    1.252997   -0.784871
      5          1           0       -0.059948    1.098514    0.970105
      6          1           0        2.188228    0.246202   -0.182891
      7          1           0        1.233289   -1.295917    0.255010
      8          1           0       -1.917090    0.114822    0.073058
 ---------------------------------------------------------------------

 SCF Done:  E(UM062X) =  -154.353580846     A.U. after    1 cycles

 The electronic state is 2-A.
 Alpha  occ. eigenvalues --  -19.61930 -10.58926 -10.53983  -1.14594  -0.84885
 Alpha  occ. eigenvalues --   -0.69198  -0.60293  -0.53736  -0.48929  -0.46998
 Alpha  occ. eigenvalues --   -0.41574  -0.36213  -0.26097
 Alpha virt. eigenvalues --    0.06518   0.10561   0.12630   0.13839   0.15594
 Alpha virt. eigenvalues --    0.20397   0.23602   0.30581   0.36824   0.37802
 Alpha virt. eigenvalues --    0.39619   0.40827   0.42061   0.45447   0.48296

  Beta  occ. eigenvalues --  -19.61922 -10.58996 -10.53248  -1.14528  -0.82697
  Beta  occ. eigenvalues --   -0.66633  -0.59876  -0.52530  -0.48262  -0.45996
  Beta  occ. eigenvalues --   -0.40968  -0.35484
  Beta virt. eigenvalues --   -0.01246   0.06203   0.10102   0.12477   0.13058
  Beta virt. eigenvalues --    0.15449   0.20142   0.23563   0.29441   0.35435
  Beta virt. eigenvalues --    0.37461   0.39867   0.41016   0.41951   0.44697

 Mulliken charges and spin densities:
               1          2
     1  O   -0.383739   0.005450
     2  C    0.038477  -0.071473
     3  C   -0.396605   1.058989
     4  H    0.077964   0.031771
     5  H    0.078149   0.055451
     6  H    0.160780  -0.042149
     7  H    0.180073  -0.038800
     8  H    0.244900   0.000761
 Sum of Mulliken charges =  -0.00000   1.00000

 Dipole moment (field-independent basis, Debye):
    X=             -0.2905    Y=              1.6756    Z=              0.3855  Tot=              1.7437
 Quadrupole moment (field-independent basis, Debye-Ang):
   XX=            -16.2083   YY=            -19.3946   ZZ=            -20.5046
   XY=             -1.7629   XZ=             -0.4787   YZ=             -0.4173

  Exact polarizability:  33.422  -1.529  28.740  -0.691  -0.312  23.440
 Approx polarizability:  34.064  -0.864  32.158  -0.716  -0.156  27.030

                      1                      2                      3
                      A                      A                      A
 Frequencies --    109.3213               267.1588               388.3256
 Red. masses --      1.0834                 1.0979                 1.2569
 Frc consts  --      0.0076                 0.0462                 0.1117
 IR Inten    --     19.6763                95.2608                47.1004

                      4                      5                      6
                      A                      A                      A
 Frequencies --    447.7189               879.6282               973.0122
 Red. masses --      2.3610                 1.5520                 1.9183
 Frc consts  --      0.2788                 0.7075                 1.0700
 IR Inten    --     13.1020                12.7479                 8.1832

                      7                      8                      9
                      A                      A                      A
 Frequencies --   1073.8758              1150.0000              1235.6643
 Red. masses --      1.8225                 3.2020                 1.0917
 Frc consts  --      1.2383                 2.4950                 0.9821
 IR Inten    --     25.2927                53.2706                14.7525

                     10                     11                     12
                      A                      A                      A
 Frequencies --   1274.4268              1426.1443              1473.8099
 Red. masses --      1.2080                 1.1983                 1.4808
 Frc consts  --      1.1559                 1.4360                 1.8951
 IR Inten    --     61.0852                 0.7852                 7.7080

                     13                     14                     15
                      A                      A                      A
 Frequencies --   1507.9736              2948.3760              3000.2774
 Red. masses --      1.0821                 1.0704                 1.0853
 Frc consts  --      1.4498                 5.4822                 5.7558
 IR Inten    --      5.8326                50.4161                45.8790

                     16                     17                     18
                      A                      A                      A
 Frequencies --   3186.8233              3300.1861              3902.1051
 Red. masses --      1.0506                 1.1203                 1.0666
 Frc consts  --      6.2866                 7.1891                 9.5684
 IR Inten    --      3.5258                 2.6896                41.6885

 - Thermochemistry -
 -------------------
 Temperature   298.150 Kelvin.  Pressure   1.00000 Atm.
 Atom     1 has atomic number  8 and mass  15.99491

 Molecular mass:    45.03404 amu.
 Principal axes and moments of inertia in atomic units:
                           1         2         3
     Eigenvalues --    44.64192 178.19319 210.55180
           X            0.99934  -0.03592  -0.00437
           Y            0.03578   0.99893  -0.02927
           Z            0.00542   0.02909   0.99956
 This molecule is an asymmetric top.
 Rotational symmetry number  1.
 Rotational temperatures (Kelvin)      1.94019     0.48607     0.41137
 Rotational constants (GHZ):          40.42705    10.12800     8.57148
 Zero-point vibrational energy     170736.0 (Joules/Mol)
                                   40.80688 (Kcal/Mol)
 Warning -- explicit consideration of   4 degrees of freedom as
           vibrations may cause significant error
 Vibrational temperatures:    157.29   384.38   558.71   644.17  1265.59
          (Kelvin)           1399.95  1545.07  1654.59  1777.85  1833.62
                             2051.90  2120.48  2169.64  4242.06  4316.73
                             4585.13  4748.23  5614.26

 Zero-point correction=                           0.065030 (Hartree/Particle)
 Thermal correction to Energy=                    0.069820
 Thermal correction to Enthalpy=                  0.070764
 Thermal correction to Gibbs Free Energy=         0.038480
 Sum of electronic and zero-point Energies=           -154.288551
 Sum of electronic and thermal Energies=              -154.283761
 Sum of electronic and thermal Enthalpies=            -154.282817
 Sum of electronic and thermal Free Energies=         -154.315101

                     E (Thermal)             CV                S
                      KCal/Mol        Cal/Mol-Kelvin    Cal/Mol-Kelvin
 Total                   43.813             14.573             67.947
 Electronic               0.000              0.000              1.377
 Translational            0.889              2.981             37.340
 Rotational               0.889              2.981             22.042
 Vibrational             42.035              8.611              7.187
 Vibration     1          0.606              1.942              3.281
 Vibration     2          0.672              1.733              1.615
 Vibration     3          0.756              1.495              1.007
 Vibration     4          0.807              1.366              0.803

 Optimization completed.
    -- Stationary point found.
 Normal termination of Gaussian 16 at Wed May 22 18:38:24 2019.
