 Gaussian 16, Revision A.03,
 Gaussian 16:  EM64L-G16RevA.03 25-Dec-2016

 ----------------------------------------------------------------------
 #p m062x/cc-pVTZ opt=(calcfc,maxcycles=900) freq IOP(7/33=1,2/16=3) sc
 f=(maxcycle=900)
 ----------------------------------------------------------------------

 ------------------------------
 Gaussian input prepared by ASE
 ------------------------------
 Symbolic Z-matrix:
 Charge =  0 Multiplicity = 2

 SCF Done:  E(UM062X) =  -154.349863302     A.U. after   15 cycles
 SCF Done:  E(UM062X) =  -154.354150382     A.U. after   14 cycles
 SCF Done:  E(UM062X) =  -154.354549389     A.U. after   15 cycles
 SCF Done:  E(UM062X) =  -154.355054203     A.U. after   13 cycles
 SCF Done:  E(UM062X) =  -154.355102755     A.U. after   12 cycles
 SCF Done:  E(UM062X) =  -154.355156897     A.U. after    9 cycles
 SCF Done:  E(UM062X) =  -154.355296274     A.U. after   13 cycles
 SCF Done:  E(UM062X) =  -154.355316263     A.U. after   11 cycles
 SCF Done:  E(UM062X) =  -154.355316859     A.U. after    8 cycles
 SCF Done:  E(UM062X) =  -154.355317023     A.U. after    8 cycles
 Optimization completed.
    -- Stationary point found.
 Normal termination of Gaussian 16 at Wed May 22 18:38:19 2019.

 ----------------------------------------------------------------------
 #P Geom=AllCheck Guess=TCheck SCRF=Check Test GenChk UM062X/CC-pVTZ Fr
 eq
 ----------------------------------------------------------------------

 Structure from the checkpoint file:  "/scratch/harms.n/gauss_scrdir/Gau-3526.chk"
 ------------------------------
 Gaussian input prepared by ASE
 ------------------------------
 Charge =  0 Multiplicity = 2

                         Standard orientation:
 ---------------------------------------------------------------------
 Center     Atomic      Atomic             Coordinates (Angstroms)
 Number     Number       Type             X           Y           Z
 ---------------------------------------------------------------------
      1          8           0       -1.184968   -0.255416   -0.044292
      2          6           0       -0.011054    0.538707   -0.029706
      3          6           0        1.227295   -0.273883    0.015329
      4          1           0       -0.057070    1.131832   -0.950358
      5          1           0       -0.026740    1.253499    0.801146
      6          1           0        2.139539    0.124968    0.431507
      7          1           0        1.267901   -1.197259   -0.543775
      8          1           0       -1.141336   -0.858656    0.702085
 ---------------------------------------------------------------------

 SCF Done:  E(UM062X) =  -154.355317023     A.U. after    1 cycles

 The electronic state is 2-A.
 Alpha  occ. eigenvalues --  -19.61884 -10.58849 -10.54876  -1.14570  -0.84827
 Alpha  occ. eigenvalues --   -0.70869  -0.58457  -0.53227  -0.51424  -0.47106
 Alpha  occ. eigenvalues --   -0.41147  -0.36204  -0.27360
 Alpha virt. eigenvalues --    0.07753   0.10687   0.11616   0.13169   0.16067
 Alpha virt. eigenvalues --    0.20473   0.23995   0.30520   0.35295   0.36729
 Alpha virt. eigenvalues --    0.37826   0.40615   0.44219   0.44365   0.47831

  Beta  occ. eigenvalues --  -19.61833 -10.58916 -10.54166  -1.14344  -0.82566
  Beta  occ. eigenvalues --   -0.68545  -0.57944  -0.52285  -0.50289  -0.46152
  Beta  occ. eigenvalues --   -0.40404  -0.35610
  Beta virt. eigenvalues --   -0.03159   0.07142   0.10200   0.11440   0.12652
  Beta virt. eigenvalues --    0.15868   0.19966   0.23700   0.29491   0.34354
  Beta virt. eigenvalues --    0.35877   0.38812   0.40394   0.43960   0.44215

 Mulliken charges and spin densities:
               1          2
     1  O   -0.382671   0.017241
     2  C    0.023768  -0.071109
     3  C   -0.420345   1.049605
     4  H    0.109958   0.056505
     5  H    0.084690   0.020533
     6  H    0.162889  -0.039524
     7  H    0.181711  -0.039850
     8  H    0.240000   0.006598
 Sum of Mulliken charges =  -0.00000   1.00000

 Dipole moment (field-independent basis, Debye):
    X=              1.2094    Y=              0.0103    Z=              0.9473  Tot=              1.5363
 Quadrupole moment (field-independent basis, Debye-Ang):
   XX=            -21.3578   YY=            -17.9939   ZZ=            -18.8329
   XY=              0.7678   XZ=             -1.4066   YZ=             -0.7952

  Exact polarizability:  31.837  -0.447  29.125   0.218  -0.061  25.221
 Approx polarizability:  33.080   0.373  32.167   0.661  -0.515  29.464

                      1                      2                      3
                      A                      A                      A
 Frequencies --    195.2875               319.8023               428.0609
 Red. masses --      1.0766                 1.0891                 1.9845
 Frc consts  --      0.0242                 0.0656                 0.2143
 IR Inten    --      4.0185               111.2397                18.5607

                      4                      5                      6
                      A                      A                      A
 Frequencies --    511.9424               838.3877               969.8006
 Red. masses --      1.4734                 1.3131                 2.4358
 Frc consts  --      0.2275                 0.5438                 1.3498
 IR Inten    --     40.4904                 1.3928                43.3846

                      7                      8                      9
                      A                      A                      A
 Frequencies --   1120.9848              1140.4909              1188.5605
 Red. masses --      2.5688                 2.7560                 1.0674
 Frc consts  --      1.9019                 2.1121                 0.8884
 IR Inten    --     24.9412                45.8695                23.8251

                     10                     11                     12
                      A                      A                      A
 Frequencies --   1371.9606              1408.4854              1458.1879
 Red. masses --      1.2039                 1.2290                 1.2699
 Frc consts  --      1.3351                 1.4365                 1.5910
 IR Inten    --      9.2418                32.4165                11.6813

                     13                     14                     15
                      A                      A                      A
 Frequencies --   1499.4216              3013.8714              3037.7193
 Red. masses --      1.0752                 1.0559                 1.1034
 Frc consts  --      1.4242                 5.6508                 5.9990
 IR Inten    --      1.8698                37.4844                28.8592

                     16                     17                     18
                      A                      A                      A
 Frequencies --   3171.4653              3281.9208              3875.5157
 Red. masses --      1.0510                 1.1194                 1.0663
 Frc consts  --      6.2284                 7.1041                 9.4359
 IR Inten    --      4.5217                 5.4068                33.5161

 - Thermochemistry -
 -------------------
 Temperature   298.150 Kelvin.  Pressure   1.00000 Atm.
 Atom     1 has atomic number  8 and mass  15.99491

 Molecular mass:    45.03404 amu.
 Principal axes and moments of inertia in atomic units:
                           1         2         3
     Eigenvalues --    46.67705 180.57343 208.86527
           X            0.99990  -0.00908  -0.01125
           Y            0.00913   0.99995   0.00489
           Z            0.01121  -0.00499   0.99992
 This molecule is an asymmetric top.
 Rotational symmetry number  1.
 Rotational temperatures (Kelvin)      1.85560     0.47966     0.41469
 Rotational constants (GHZ):          38.66443     9.99450     8.64070
 Zero-point vibrational energy     172452.9 (Joules/Mol)
                                   41.21722 (Kcal/Mol)
 Warning -- explicit consideration of   4 degrees of freedom as
           vibrations may cause significant error
 Vibrational temperatures:    280.98   460.12   615.88   736.57  1206.25
          (Kelvin)           1395.33  1612.85  1640.91  1710.07  1973.95
                             2026.50  2098.01  2157.33  4336.29  4370.60
                             4563.03  4721.95  5576.00

 Zero-point correction=                           0.065684 (Hartree/Particle)
 Thermal correction to Energy=                    0.070176
 Thermal correction to Enthalpy=                  0.071121
 Thermal correction to Gibbs Free Energy=         0.039623
 Sum of electronic and zero-point Energies=           -154.289633
 Sum of electronic and thermal Energies=              -154.285141
 Sum of electronic and thermal Enthalpies=            -154.284196
 Sum of electronic and thermal Free Energies=         -154.315694

                     E (Thermal)             CV                S
                      KCal/Mol        Cal/Mol-Kelvin    Cal/Mol-Kelvin
 Total                   44.036             14.181             66.292
 Electronic               0.000              0.000              1.377
 Translational            0.889              2.981             37.340
 Rotational               0.889              2.981             22.092
 Vibrational             42.259              8.219              5.483
 Vibration     1          0.636              1.846              2.177
 Vibration     2          0.706              1.636              1.311
 Vibration     3          0.790              1.409              0.865
 Vibration     4          0.867              1.224              0.629

 Optimization completed.
    -- Stationary point found.
 Normal termination of Gaussian 16 at Wed May 22 18:39:58 2019.
