 Gaussian 16, Revision A.03,
 Gaussian 16:  EM64L-G16RevA.03 25-Dec-2016

 ----------------------------------------------------------------------
 #p m062x/cc-pVTZ opt=(calcfc,maxcycles=900) freq IOP(7/33=1,2/16=3) sc
 f=(maxcycle=900)
 ----------------------------------------------------------------------

 ------------------------------
 Gaussian input prepared by ASE
 ------------------------------
 Symbolic Z-matrix:
 Charge =  0 Multiplicity = 2

 SCF Done:  E(UM062X) =  -154.349500729     A.U. after   15 cycles
 SCF Done:  E(UM062X) =  -154.353189438     A.U. after   13 cycles
 SCF Done:  E(UM062X) =  -154.353283303     A.U. after   15 cycles
 SCF Done:  E(UM062X) =  -154.352921978     A.U. after   15 cycles
 SCF Done:  E(UM062X) =  -154.353506383     A.U. after   12 cycles
 SCF Done:  E(UM062X) =  -154.353525039     A.U. after   11 cycles
 SCF Done:  E(UM062X) =  -154.353542008     A.U. after   11 cycles
 SCF Done:  E(UM062X) =  -154.315007853     A.U. after   13 cycles
 SCF Done:  E(UM062X) =  -154.353385354     A.U. after   14 cycles
 SCF Done:  E(UM062X) =  -154.353568431     A.U. after    9 cycles
 SCF Done:  E(UM062X) =  -154.353580131     A.U. after   11 cycles
 SCF Done:  E(UM062X) =  -154.353564305     A.U. after   11 cycles
 SCF Done:  E(UM062X) =  -154.353192229     A.U. after   13 cycles
 SCF Done:  E(UM062X) =  -154.353395701     A.U. after   12 cycles
 SCF Done:  E(UM062X) =  -154.353580269     A.U. after    8 cycles
 SCF Done:  E(UM062X) =  -154.353580779     A.U. after    8 cycles
 SCF Done:  E(UM062X) =  -154.353579478     A.U. after    9 cycles
 SCF Done:  E(UM062X) =  -154.353580712     A.U. after    9 cycles
 SCF Done:  E(UM062X) =  -154.353580857     A.U. after    8 cycles
 Optimization completed.
    -- Stationary point found.
 Normal termination of Gaussian 16 at Wed May 22 18:41:14 2019.

 ----------------------------------------------------------------------
 #P Geom=AllCheck Guess=TCheck SCRF=Check Test GenChk UM062X/CC-pVTZ Fr
 eq
 ----------------------------------------------------------------------

 Structure from the checkpoint file:  "/scratch/harms.n/gauss_scrdir/Gau-46121.chk"
 ------------------------------
 Gaussian input prepared by ASE
 ------------------------------
 Charge =  0 Multiplicity = 2

                         Standard orientation:
 ---------------------------------------------------------------------
 Center     Atomic      Atomic             Coordinates (Angstroms)
 Number     Number       Type             X           Y           Z
 ---------------------------------------------------------------------
      1          8           0        1.102883   -0.376934   -0.048788
      2          6           0        0.010641    0.520517    0.033006
      3          6           0       -1.246582   -0.254112   -0.023276
      4          1           0        0.059808    1.098233    0.970355
      5          1           0        0.037471    1.253195   -0.784580
      6          1           0       -1.233679   -1.295709    0.255797
      7          1           0       -2.188039    0.246511   -0.183037
      8          1           0        1.917021    0.114811    0.073395
 ---------------------------------------------------------------------

 SCF Done:  E(UM062X) =  -154.353580857     A.U. after    1 cycles

 The electronic state is 2-A.
 Alpha  occ. eigenvalues --  -19.61930 -10.58926 -10.53983  -1.14598  -0.84885
 Alpha  occ. eigenvalues --   -0.69197  -0.60295  -0.53737  -0.48929  -0.46996
 Alpha  occ. eigenvalues --   -0.41574  -0.36213  -0.26099
 Alpha virt. eigenvalues --    0.06518   0.10561   0.12631   0.13838   0.15596
 Alpha virt. eigenvalues --    0.20401   0.23602   0.30581   0.36825   0.37803
 Alpha virt. eigenvalues --    0.39616   0.40827   0.42060   0.45440   0.48294

  Beta  occ. eigenvalues --  -19.61922 -10.58995 -10.53248  -1.14531  -0.82697
  Beta  occ. eigenvalues --   -0.66633  -0.59878  -0.52532  -0.48263  -0.45994
  Beta  occ. eigenvalues --   -0.40968  -0.35484
  Beta virt. eigenvalues --   -0.01248   0.06204   0.10102   0.12477   0.13057
  Beta virt. eigenvalues --    0.15450   0.20146   0.23563   0.29440   0.35432
  Beta virt. eigenvalues --    0.37461   0.39870   0.41017   0.41950   0.44687

 Mulliken charges and spin densities:
               1          2
     1  O   -0.383672   0.005457
     2  C    0.038455  -0.071437
     3  C   -0.396523   1.058952
     4  H    0.078127   0.055469
     5  H    0.077942   0.031727
     6  H    0.180049  -0.038789
     7  H    0.160735  -0.042144
     8  H    0.244887   0.000765
 Sum of Mulliken charges =  -0.00000   1.00000

 Dipole moment (field-independent basis, Debye):
    X=              0.2906    Y=              1.6755    Z=              0.3872  Tot=              1.7440
 Quadrupole moment (field-independent basis, Debye-Ang):
   XX=            -16.2090   YY=            -19.3951   ZZ=            -20.5041
   XY=              1.7624   XZ=              0.4791   YZ=             -0.4185

  Exact polarizability:  33.421   1.529  28.740   0.692  -0.313  23.442
 Approx polarizability:  34.064   0.864  32.158   0.717  -0.156  27.033

                      1                      2                      3
                      A                      A                      A
 Frequencies --    110.9056               266.4620               388.9748
 Red. masses --      1.0836                 1.0976                 1.2595
 Frc consts  --      0.0079                 0.0459                 0.1123
 IR Inten    --     19.8749                95.1838                46.7828

                      4                      5                      6
                      A                      A                      A
 Frequencies --    447.8759               879.6428               973.1051
 Red. masses --      2.3526                 1.5510                 1.9201
 Frc consts  --      0.2780                 0.7071                 1.0713
 IR Inten    --     13.2734                12.7310                 8.1732

                      7                      8                      9
                      A                      A                      A
 Frequencies --   1073.9078              1150.2060              1235.6908
 Red. masses --      1.8219                 3.2006                 1.0919
 Frc consts  --      1.2380                 2.4948                 0.9823
 IR Inten    --     25.3828                53.2365                14.8647

                     10                     11                     12
                      A                      A                      A
 Frequencies --   1274.4665              1426.1889              1473.8251
 Red. masses --      1.2079                 1.1983                 1.4809
 Frc consts  --      1.1560                 1.4361                 1.8952
 IR Inten    --     61.0042                 0.7832                 7.6968

                     13                     14                     15
                      A                      A                      A
 Frequencies --   1508.0204              2948.0650              3000.1744
 Red. masses --      1.0822                 1.0704                 1.0852
 Frc consts  --      1.4500                 5.4812                 5.7552
 IR Inten    --      5.8472                50.4326                45.8997

                     16                     17                     18
                      A                      A                      A
 Frequencies --   3186.7278              3300.0833              3902.3384
 Red. masses --      1.0506                 1.1203                 1.0666
 Frc consts  --      6.2862                 7.1887                 9.5696
 IR Inten    --      3.5346                 2.6982                41.6828

 - Thermochemistry -
 -------------------
 Temperature   298.150 Kelvin.  Pressure   1.00000 Atm.
 Atom     1 has atomic number  8 and mass  15.99491

 Molecular mass:    45.03404 amu.
 Principal axes and moments of inertia in atomic units:
                           1         2         3
     Eigenvalues --    44.63971 178.19168 210.54234
           X            0.99935   0.03591   0.00436
           Y           -0.03576   0.99893  -0.02936
           Z           -0.00541   0.02918   0.99956
 This molecule is an asymmetric top.
 Rotational symmetry number  1.
 Rotational temperatures (Kelvin)      1.94029     0.48607     0.41138
 Rotational constants (GHZ):          40.42906    10.12809     8.57187
 Zero-point vibrational energy     170746.9 (Joules/Mol)
                                   40.80950 (Kcal/Mol)
 Warning -- explicit consideration of   4 degrees of freedom as
           vibrations may cause significant error
 Vibrational temperatures:    159.57   383.38   559.65   644.39  1265.61
          (Kelvin)           1400.08  1545.11  1654.89  1777.88  1833.67
                             2051.97  2120.51  2169.70  4241.61  4316.58
                             4584.99  4748.08  5614.59

 Zero-point correction=                           0.065034 (Hartree/Particle)
 Thermal correction to Energy=                    0.069821
 Thermal correction to Enthalpy=                  0.070766
 Thermal correction to Gibbs Free Energy=         0.038494
 Sum of electronic and zero-point Energies=           -154.288547
 Sum of electronic and thermal Energies=              -154.283760
 Sum of electronic and thermal Enthalpies=            -154.282815
 Sum of electronic and thermal Free Energies=         -154.315087

                     E (Thermal)             CV                S
                      KCal/Mol        Cal/Mol-Kelvin    Cal/Mol-Kelvin
 Total                   43.814             14.571             67.921
 Electronic               0.000              0.000              1.377
 Translational            0.889              2.981             37.340
 Rotational               0.889              2.981             22.042
 Vibrational             42.036              8.609              7.161
 Vibration     1          0.607              1.940              3.253
 Vibration     2          0.672              1.735              1.619
 Vibration     3          0.757              1.494              1.004
 Vibration     4          0.807              1.366              0.802

 Optimization completed.
    -- Stationary point found.
 Normal termination of Gaussian 16 at Wed May 22 18:43:03 2019.
