 Gaussian 16, Revision A.03,
 Gaussian 16:  EM64L-G16RevA.03 25-Dec-2016

 ----------------------------------------------------------------------
 #p m062x/cc-pVTZ opt=(calcfc,maxcycles=900,) freq IOP(7/33=1,2/16=3) s
 cf=(maxcycle=900)
 ----------------------------------------------------------------------

 ------------------------------
 Gaussian input prepared by ASE
 ------------------------------
 Symbolic Z-matrix:
 Charge =  0 Multiplicity = 2

 SCF Done:  E(UM062X) =  -154.353580846     A.U. after   14 cycles
 SCF Done:  E(UM062X) =  -154.353580856     A.U. after    7 cycles
 Optimization completed.
    -- Stationary point found.
 Normal termination of Gaussian 16 at Wed Aug 28 23:48:59 2019.

 ----------------------------------------------------------------------
 #P Geom=AllCheck Guess=TCheck SCRF=Check Test GenChk UM062X/CC-pVTZ Fr
 eq
 ----------------------------------------------------------------------

 Structure from the checkpoint file:  "/scratch/harms.n/gauss_scrdir/Gau-36005.chk"
 ------------------------------
 Gaussian input prepared by ASE
 ------------------------------
 Charge =  0 Multiplicity = 2

                         Standard orientation:
 ---------------------------------------------------------------------
 Center     Atomic      Atomic             Coordinates (Angstroms)
 Number     Number       Type             X           Y           Z
 ---------------------------------------------------------------------
      1          8           0       -1.102884   -0.376937   -0.048961
      2          6           0       -0.010638    0.520523    0.033123
      3          6           0        1.246585   -0.254103   -0.023226
      4          1           0       -0.037403    1.253369   -0.784306
      5          1           0       -0.059904    1.098002    0.970606
      6          1           0        2.188023    0.246423   -0.183368
      7          1           0        1.233714   -1.295614    0.256173
      8          1           0       -1.917040    0.114794    0.073203
 ---------------------------------------------------------------------

 SCF Done:  E(UM062X) =  -154.353580856     A.U. after    1 cycles

 The electronic state is 2-A.
 Alpha  occ. eigenvalues --  -19.61930 -10.58926 -10.53983  -1.14597  -0.84885
 Alpha  occ. eigenvalues --   -0.69197  -0.60294  -0.53738  -0.48929  -0.46995
 Alpha  occ. eigenvalues --   -0.41574  -0.36212  -0.26100
 Alpha virt. eigenvalues --    0.06519   0.10561   0.12631   0.13837   0.15597
 Alpha virt. eigenvalues --    0.20401   0.23603   0.30580   0.36822   0.37802
 Alpha virt. eigenvalues --    0.39617   0.40828   0.42059   0.45440   0.48295

  Beta  occ. eigenvalues --  -19.61922 -10.58995 -10.53249  -1.14530  -0.82697
  Beta  occ. eigenvalues --   -0.66633  -0.59877  -0.52533  -0.48262  -0.45994
  Beta  occ. eigenvalues --   -0.40968  -0.35483
  Beta virt. eigenvalues --   -0.01249   0.06204   0.10102   0.12477   0.13056
  Beta virt. eigenvalues --    0.15451   0.20146   0.23563   0.29439   0.35429
  Beta virt. eigenvalues --    0.37459   0.39871   0.41018   0.41948   0.44687

 Mulliken charges and spin densities:
               1          2
     1  O   -0.383677   0.005465
     2  C    0.038439  -0.071427
     3  C   -0.396516   1.058948
     4  H    0.077946   0.031701
     5  H    0.078138   0.055472
     6  H    0.160748  -0.042142
     7  H    0.180038  -0.038788
     8  H    0.244885   0.000771
 Sum of Mulliken charges =  -0.00000   1.00000

 Dipole moment (field-independent basis, Debye):
    X=             -0.2904    Y=              1.6755    Z=              0.3874  Tot=              1.7441
 Quadrupole moment (field-independent basis, Debye-Ang):
   XX=            -16.2088   YY=            -19.3954   ZZ=            -20.5038
   XY=             -1.7625   XZ=             -0.4795   YZ=             -0.4192

  Exact polarizability:  33.422  -1.529  28.740  -0.692  -0.313  23.442
 Approx polarizability:  34.065  -0.864  32.158  -0.718  -0.156  27.033

                      1                      2                      3
                      A                      A                      A
 Frequencies --    111.2627               266.5686               388.9420
 Red. masses --      1.0835                 1.0975                 1.2598
 Frc consts  --      0.0079                 0.0459                 0.1123
 IR Inten    --     19.8113                95.2458                46.7658

                      4                      5                      6
                      A                      A                      A
 Frequencies --    447.9181               879.5544               973.1367
 Red. masses --      2.3523                 1.5505                 1.9213
 Frc consts  --      0.2781                 0.7067                 1.0720
 IR Inten    --     13.2871                12.7173                 8.1851

                      7                      8                      9
                      A                      A                      A
 Frequencies --   1073.9502              1150.1345              1235.6855
 Red. masses --      1.8217                 3.2003                 1.0919
 Frc consts  --      1.2380                 2.4943                 0.9823
 IR Inten    --     25.4157                53.2330                14.8743

                     10                     11                     12
                      A                      A                      A
 Frequencies --   1274.4721              1426.1789              1473.8209
 Red. masses --      1.2079                 1.1983                 1.4808
 Frc consts  --      1.1559                 1.4361                 1.8951
 IR Inten    --     60.9641                 0.7846                 7.6986

                     13                     14                     15
                      A                      A                      A
 Frequencies --   1508.0076              2948.1265              3000.2521
 Red. masses --      1.0821                 1.0704                 1.0852
 Frc consts  --      1.4499                 5.4814                 5.7556
 IR Inten    --      5.8411                50.4267                45.8884

                     16                     17                     18
                      A                      A                      A
 Frequencies --   3186.7654              3300.1195              3902.2848
 Red. masses --      1.0506                 1.1203                 1.0666
 Frc consts  --      6.2864                 7.1888                 9.5693
 IR Inten    --      3.5335                 2.7005                41.6729

 - Thermochemistry -
 -------------------
 Temperature   298.150 Kelvin.  Pressure   1.00000 Atm.
 Atom     1 has atomic number  8 and mass  15.99491

 Molecular mass:    45.03404 amu.
 Principal axes and moments of inertia in atomic units:
                           1         2         3
     Eigenvalues --    44.64082 178.19480 210.54255
           X            0.99935  -0.03591  -0.00444
           Y            0.03577   0.99892  -0.02950
           Z            0.00549   0.02932   0.99956
 This molecule is an asymmetric top.
 Rotational symmetry number  1.
 Rotational temperatures (Kelvin)      1.94024     0.48606     0.41138
 Rotational constants (GHZ):          40.42805    10.12791     8.57186
 Zero-point vibrational energy     170750.1 (Joules/Mol)
                                   40.81024 (Kcal/Mol)
 Warning -- explicit consideration of   4 degrees of freedom as
           vibrations may cause significant error
 Vibrational temperatures:    160.08   383.53   559.60   644.45  1265.48
          (Kelvin)           1400.13  1545.17  1654.79  1777.88  1833.68
                             2051.95  2120.50  2169.69  4241.70  4316.69
                             4585.04  4748.14  5614.52

 Zero-point correction=                           0.065035 (Hartree/Particle)
 Thermal correction to Energy=                    0.069822
 Thermal correction to Enthalpy=                  0.070766
 Thermal correction to Gibbs Free Energy=         0.038498
 Sum of electronic and zero-point Energies=           -154.288546
 Sum of electronic and thermal Energies=              -154.283759
 Sum of electronic and thermal Enthalpies=            -154.282815
 Sum of electronic and thermal Free Energies=         -154.315083

                     E (Thermal)             CV                S
                      KCal/Mol        Cal/Mol-Kelvin    Cal/Mol-Kelvin
 Total                   43.814             14.570             67.914
 Electronic               0.000              0.000              1.377
 Translational            0.889              2.981             37.340
 Rotational               0.889              2.981             22.042
 Vibrational             42.036              8.609              7.154
 Vibration     1          0.607              1.940              3.247
 Vibration     2          0.672              1.734              1.618
 Vibration     3          0.757              1.494              1.004
 Vibration     4          0.807              1.365              0.802

 Optimization completed.
    -- Stationary point found.
 Normal termination of Gaussian 16 at Wed Aug 28 23:55:00 2019.
