 Gaussian 16, Revision A.03,
 Gaussian 16:  EM64L-G16RevA.03 25-Dec-2016

 ----------------------------------------------------------------------
 #p m062x/cc-pVTZ opt=(calcfc,maxcycles=900) freq IOP(7/33=1,2/16=3) sc
 f=(maxcycle=900)
 ----------------------------------------------------------------------

 ------------------------------
 Gaussian input prepared by ASE
 ------------------------------
 Symbolic Z-matrix:
 Charge =  0 Multiplicity = 2

 SCF Done:  E(UM062X) =  -154.350260880     A.U. after   15 cycles
 SCF Done:  E(UM062X) =  -154.354351004     A.U. after   15 cycles
 SCF Done:  E(UM062X) =  -154.354595018     A.U. after   15 cycles
 SCF Done:  E(UM062X) =  -154.355083926     A.U. after   13 cycles
 SCF Done:  E(UM062X) =  -154.355123747     A.U. after   11 cycles
 SCF Done:  E(UM062X) =  -154.355217974     A.U. after   12 cycles
 SCF Done:  E(UM062X) =  -154.355284285     A.U. after   12 cycles
 SCF Done:  E(UM062X) =  -154.355301615     A.U. after   11 cycles
 SCF Done:  E(UM062X) =  -154.355310076     A.U. after   11 cycles
 SCF Done:  E(UM062X) =  -154.355316714     A.U. after   11 cycles
 SCF Done:  E(UM062X) =  -154.355317020     A.U. after    8 cycles
 Optimization completed.
    -- Stationary point found.
 Normal termination of Gaussian 16 at Wed May 22 18:38:25 2019.

 ----------------------------------------------------------------------
 #P Geom=AllCheck Guess=TCheck SCRF=Check Test GenChk UM062X/CC-pVTZ Fr
 eq
 ----------------------------------------------------------------------

 Structure from the checkpoint file:  "/scratch/harms.n/gauss_scrdir/Gau-23317.chk"
 ------------------------------
 Gaussian input prepared by ASE
 ------------------------------
 Charge =  0 Multiplicity = 2

                         Standard orientation:
 ---------------------------------------------------------------------
 Center     Atomic      Atomic             Coordinates (Angstroms)
 Number     Number       Type             X           Y           Z
 ---------------------------------------------------------------------
      1          8           0        1.184977   -0.255460   -0.044252
      2          6           0        0.011071    0.538716   -0.029750
      3          6           0       -1.227322   -0.273835    0.015287
      4          1           0        0.026764    1.253547    0.801061
      5          1           0        0.057143    1.131748   -0.950454
      6          1           0       -1.268144   -1.196984   -0.544180
      7          1           0       -2.139376    0.124706    0.432175
      8          1           0        1.141299   -0.858628    0.702188
 ---------------------------------------------------------------------

 SCF Done:  E(UM062X) =  -154.355317020     A.U. after    1 cycles

 The electronic state is 2-A.
 Alpha  occ. eigenvalues --  -19.61884 -10.58849 -10.54877  -1.14569  -0.84827
 Alpha  occ. eigenvalues --   -0.70869  -0.58456  -0.53227  -0.51424  -0.47106
 Alpha  occ. eigenvalues --   -0.41146  -0.36204  -0.27361
 Alpha virt. eigenvalues --    0.07753   0.10688   0.11617   0.13167   0.16069
 Alpha virt. eigenvalues --    0.20473   0.23996   0.30519   0.35293   0.36725
 Alpha virt. eigenvalues --    0.37826   0.40616   0.44225   0.44365   0.47832

  Beta  occ. eigenvalues --  -19.61833 -10.58916 -10.54166  -1.14343  -0.82565
  Beta  occ. eigenvalues --   -0.68545  -0.57944  -0.52284  -0.50288  -0.46153
  Beta  occ. eigenvalues --   -0.40404  -0.35610
  Beta virt. eigenvalues --   -0.03160   0.07142   0.10201   0.11440   0.12650
  Beta virt. eigenvalues --    0.15869   0.19965   0.23702   0.29489   0.34354
  Beta virt. eigenvalues --    0.35872   0.38810   0.40395   0.43966   0.44214

 Mulliken charges and spin densities:
               1          2
     1  O   -0.382668   0.017279
     2  C    0.023772  -0.071100
     3  C   -0.420373   1.049612
     4  H    0.084691   0.020506
     5  H    0.109952   0.056484
     6  H    0.181712  -0.039857
     7  H    0.162921  -0.039521
     8  H    0.239993   0.006599
 Sum of Mulliken charges =  -0.00000   1.00000

 Dipole moment (field-independent basis, Debye):
    X=             -1.2095    Y=              0.0104    Z=              0.9476  Tot=              1.5365
 Quadrupole moment (field-independent basis, Debye-Ang):
   XX=            -21.3581   YY=            -17.9949   ZZ=            -18.8316
   XY=             -0.7669   XZ=              1.4059   YZ=             -0.7951

  Exact polarizability:  31.837   0.448  29.123  -0.219  -0.061  25.223
 Approx polarizability:  33.081  -0.372  32.165  -0.662  -0.515  29.466

                      1                      2                      3
                      A                      A                      A
 Frequencies --    195.0871               319.8927               428.0281
 Red. masses --      1.0765                 1.0892                 1.9837
 Frc consts  --      0.0241                 0.0657                 0.2141
 IR Inten    --      4.0004               111.2280                18.5926

                      4                      5                      6
                      A                      A                      A
 Frequencies --    511.9094               838.2991               969.8382
 Red. masses --      1.4742                 1.3127                 2.4371
 Frc consts  --      0.2276                 0.5435                 1.3506
 IR Inten    --     40.4887                 1.3935                43.4062

                      7                      8                      9
                      A                      A                      A
 Frequencies --   1120.9666              1140.4542              1188.5892
 Red. masses --      2.5721                 2.7517                 1.0675
 Frc consts  --      1.9043                 2.1087                 0.8885
 IR Inten    --     25.1496                45.6077                23.8666

                     10                     11                     12
                      A                      A                      A
 Frequencies --   1371.9650              1408.4788              1458.2008
 Red. masses --      1.2038                 1.2290                 1.2698
 Frc consts  --      1.3351                 1.4365                 1.5908
 IR Inten    --      9.2310                32.4288                11.6686

                     13                     14                     15
                      A                      A                      A
 Frequencies --   1499.4311              3013.9147              3037.7904
 Red. masses --      1.0752                 1.0559                 1.1034
 Frc consts  --      1.4243                 5.6509                 5.9993
 IR Inten    --      1.8658                37.4772                28.8589

                     16                     17                     18
                      A                      A                      A
 Frequencies --   3171.4560              3281.9105              3875.4476
 Red. masses --      1.0510                 1.1194                 1.0663
 Frc consts  --      6.2284                 7.1041                 9.4356
 IR Inten    --      4.5209                 5.4063                33.5132

 - Thermochemistry -
 -------------------
 Temperature   298.150 Kelvin.  Pressure   1.00000 Atm.
 Atom     1 has atomic number  8 and mass  15.99491

 Molecular mass:    45.03404 amu.
 Principal axes and moments of inertia in atomic units:
                           1         2         3
     Eigenvalues --    46.67879 180.58106 208.86616
           X            0.99990   0.00909   0.01124
           Y           -0.00915   0.99995   0.00491
           Z           -0.01119  -0.00501   0.99992
 This molecule is an asymmetric top.
 Rotational symmetry number  1.
 Rotational temperatures (Kelvin)      1.85553     0.47964     0.41469
 Rotational constants (GHZ):          38.66298     9.99408     8.64066
 Zero-point vibrational energy     172451.6 (Joules/Mol)
                                   41.21693 (Kcal/Mol)
 Warning -- explicit consideration of   4 degrees of freedom as
           vibrations may cause significant error
 Vibrational temperatures:    280.69   460.25   615.84   736.52  1206.13
          (Kelvin)           1395.38  1612.82  1640.86  1710.11  1973.95
                             2026.49  2098.03  2157.35  4336.35  4370.70
                             4563.02  4721.94  5575.90

 Zero-point correction=                           0.065683 (Hartree/Particle)
 Thermal correction to Energy=                    0.070176
 Thermal correction to Enthalpy=                  0.071120
 Thermal correction to Gibbs Free Energy=         0.039622
 Sum of electronic and zero-point Energies=           -154.289634
 Sum of electronic and thermal Energies=              -154.285141
 Sum of electronic and thermal Enthalpies=            -154.284197
 Sum of electronic and thermal Free Energies=         -154.315695

                     E (Thermal)             CV                S
                      KCal/Mol        Cal/Mol-Kelvin    Cal/Mol-Kelvin
 Total                   44.036             14.181             66.294
 Electronic               0.000              0.000              1.377
 Translational            0.889              2.981             37.340
 Rotational               0.889              2.981             22.092
 Vibrational             42.259              8.220              5.484
 Vibration     1          0.636              1.847              2.179
 Vibration     2          0.706              1.635              1.311
 Vibration     3          0.790              1.409              0.865
 Vibration     4          0.867              1.224              0.629

 Optimization completed.
    -- Stationary point found.
 Normal termination of Gaussian 16 at Wed May 22 18:40:08 2019.
