 Gaussian 16, Revision A.03,
 Gaussian 16:  EM64L-G16RevA.03 25-Dec-2016

 ----------------------------------------------------------------------
 #p m062x/cc-pVTZ Opt=(ts,calcfc,noeigentest,ModRedun,maxcycles=900) sc
 f=(maxcycle=900)
 ----------------------------------------------------------------------

 ------------------------------
 Gaussian input prepared by ASE
 ------------------------------
 Symbolic Z-matrix:
 Charge =  0 Multiplicity = 2

 SCF Done:  E(UM062X) =  -305.913536527     A.U. after   20 cycles

  Exact polarizability:   0.000   0.000   0.000   0.000   0.000   0.000
 Approx polarizability:  54.190  -6.600  51.959   0.555  -3.922  47.298

 SCF Done:  E(UM062X) =  -305.923491732     A.U. after   18 cycles
 SCF Done:  E(UM062X) =  -305.929985810     A.U. after   17 cycles
 SCF Done:  E(UM062X) =  -305.933416655     A.U. after   17 cycles
 SCF Done:  E(UM062X) =  -305.933705581     A.U. after   17 cycles
 SCF Done:  E(UM062X) =  -305.932426181     A.U. after   17 cycles
 SCF Done:  E(UM062X) =  -305.930845173     A.U. after   17 cycles
 SCF Done:  E(UM062X) =  -305.930278727     A.U. after   16 cycles
 SCF Done:  E(UM062X) =  -305.928270508     A.U. after   17 cycles
 SCF Done:  E(UM062X) =  -305.928015423     A.U. after   17 cycles
 SCF Done:  E(UM062X) =  -305.926282088     A.U. after   16 cycles
 SCF Done:  E(UM062X) =  -305.925741884     A.U. after   22 cycles
 SCF Done:  E(UM062X) =  -305.928022627     A.U. after   23 cycles
 SCF Done:  E(UM062X) =  -305.926955879     A.U. after   22 cycles
 SCF Done:  E(UM062X) =  -305.925799662     A.U. after   17 cycles
 SCF Done:  E(UM062X) =  -305.924143249     A.U. after   18 cycles
 SCF Done:  E(UM062X) =  -305.923686305     A.U. after   15 cycles
 SCF Done:  E(UM062X) =  -305.923715555     A.U. after   14 cycles
 SCF Done:  E(UM062X) =  -305.923717410     A.U. after   13 cycles
 Optimization completed.
    -- Stationary point found.

                         Standard orientation:
 ---------------------------------------------------------------------
 Center     Atomic      Atomic             Coordinates (Angstroms)
 Number     Number       Type             X           Y           Z
 ---------------------------------------------------------------------
      1          8           0       -0.899421   -1.159733   -0.399271
      2          8           0        1.487662   -0.381180    0.543689
      3          8           0        1.975198    0.407773   -0.378504
      4          6           0       -1.426272   -0.091959    0.395640
      5          6           0       -0.949575    1.264818   -0.076697
      6          1           0       -2.518430   -0.145981    0.398947
      7          1           0       -1.082648   -0.292512    1.410312
      8          1           0       -1.254424    1.463321   -1.095138
      9          1           0       -1.341694    2.056284    0.573885
     10          1           0       -1.030269   -0.941848   -1.326699
     11          1           0        0.898596   -1.075217    0.179219
     12          1           0        0.076438    0.963919   -0.181493
 ---------------------------------------------------------------------

 The electronic state is 2-A.
 Alpha  occ. eigenvalues --  -19.72906 -19.70359 -19.64897 -10.59474 -10.52810
 Alpha  occ. eigenvalues --   -1.32970  -1.17018  -0.98193  -0.86297  -0.72682
 Alpha  occ. eigenvalues --   -0.65087  -0.60989  -0.57879  -0.56024  -0.54527
 Alpha  occ. eigenvalues --   -0.53362  -0.45886  -0.44202  -0.41916  -0.37724
 Alpha  occ. eigenvalues --   -0.37195  -0.36232
 Alpha virt. eigenvalues --    0.05115   0.09063   0.09505   0.12260   0.13932
 Alpha virt. eigenvalues --    0.15577   0.18511   0.20018   0.22523   0.23530
 Alpha virt. eigenvalues --    0.28322   0.29463   0.34858   0.35660   0.38689

  Beta  occ. eigenvalues --  -19.72156 -19.68885 -19.64899 -10.59471 -10.52806
  Beta  occ. eigenvalues --   -1.29629  -1.17009  -0.93463  -0.86270  -0.72649
  Beta  occ. eigenvalues --   -0.63252  -0.59217  -0.54716  -0.54370  -0.53710
  Beta  occ. eigenvalues --   -0.48805  -0.45493  -0.43727  -0.41831  -0.36516
  Beta  occ. eigenvalues --   -0.34347
  Beta virt. eigenvalues --   -0.05830   0.05182   0.09091   0.09750   0.12314
  Beta virt. eigenvalues --    0.14012   0.15726   0.18740   0.20813   0.22580
  Beta virt. eigenvalues --    0.24338   0.28485   0.29565   0.34893   0.35730

 Mulliken charges and spin densities:
               1          2
     1  O   -0.437609  -0.000985
     2  O   -0.136751   0.273453
     3  O   -0.148012   0.733394
     4  C   -0.071987   0.007118
     5  C   -0.360689   0.008713
     6  H    0.101188   0.002629
     7  H    0.136028  -0.001709
     8  H    0.099755  -0.000279
     9  H    0.107831   0.000036
    10  H    0.273894  -0.000208
    11  H    0.279957  -0.010694
    12  H    0.156394  -0.011469
 Sum of Mulliken charges =  -0.00000   1.00000

 Dipole moment (field-independent basis, Debye):
    X=             -2.5128    Y=             -0.3482    Z=             -0.7039  Tot=              2.6327
 Quadrupole moment (field-independent basis, Debye-Ang):
   XX=            -33.7899   YY=            -32.0394   ZZ=            -28.8826
   XY=             -3.3585   XZ=              0.4491   YZ=              0.9508

 Normal termination of Gaussian 16 at Thu May 30 08:04:07 2019.
