 Gaussian 16, Revision A.03,
 Gaussian 16:  EM64L-G16RevA.03 25-Dec-2016

 ----------------------------------------------------------------------
 #p m062x/cc-pVTZ opt=(ts,calcfc,noeigentest,maxcycles=900) freq scf=(m
 axcycle=900) IOP(7/33=1,2/16=3)
 ----------------------------------------------------------------------

 ------------------------------
 Gaussian input prepared by ASE
 ------------------------------
 Symbolic Z-matrix:
 Charge =  0 Multiplicity = 2

 SCF Done:  E(UM062X) =  -305.890484864     A.U. after   18 cycles
 SCF Done:  E(UM062X) =  -305.893726438     A.U. after   17 cycles
 SCF Done:  E(UM062X) =  -305.894176915     A.U. after   15 cycles
 SCF Done:  E(UM062X) =  -305.894258854     A.U. after   15 cycles
 SCF Done:  E(UM062X) =  -305.894294160     A.U. after   14 cycles
 SCF Done:  E(UM062X) =  -305.894323536     A.U. after   14 cycles
 SCF Done:  E(UM062X) =  -305.894331426     A.U. after   13 cycles
 SCF Done:  E(UM062X) =  -305.894350352     A.U. after   14 cycles
 SCF Done:  E(UM062X) =  -305.894362588     A.U. after   11 cycles
 SCF Done:  E(UM062X) =  -305.894373633     A.U. after   13 cycles
 SCF Done:  E(UM062X) =  -305.894376953     A.U. after   13 cycles
 SCF Done:  E(UM062X) =  -305.894378652     A.U. after   13 cycles
 SCF Done:  E(UM062X) =  -305.894379338     A.U. after   12 cycles
 SCF Done:  E(UM062X) =  -305.894379849     A.U. after   13 cycles
 SCF Done:  E(UM062X) =  -305.894380332     A.U. after    9 cycles
 SCF Done:  E(UM062X) =  -305.894381895     A.U. after   11 cycles
 SCF Done:  E(UM062X) =  -305.894382690     A.U. after   11 cycles
 SCF Done:  E(UM062X) =  -305.894382900     A.U. after   11 cycles
 SCF Done:  E(UM062X) =  -305.894382945     A.U. after    7 cycles
 Optimization completed.
    -- Stationary point found.
 Normal termination of Gaussian 16 at Sat Jun 22 12:46:51 2019.

 ----------------------------------------------------------------------
 #P Geom=AllCheck Guess=TCheck SCRF=Check Test GenChk UM062X/CC-pVTZ Fr
 eq
 ----------------------------------------------------------------------

 Structure from the checkpoint file:  "/scratch/harms.n/gauss_scrdir/Gau-37314.chk"
 ------------------------------
 Gaussian input prepared by ASE
 ------------------------------
 Charge =  0 Multiplicity = 2

                         Standard orientation:
 ---------------------------------------------------------------------
 Center     Atomic      Atomic             Coordinates (Angstroms)
 Number     Number       Type             X           Y           Z
 ---------------------------------------------------------------------
      1          8           0       -1.755052   -0.882664   -0.378365
      2          8           0        1.896325   -0.568406    0.451740
      3          8           0        1.595258    0.093083   -0.731023
      4          6           0       -1.270853    0.019839    0.589387
      5          6           0       -0.534648    1.184302    0.001175
      6          1           0       -2.087280    0.391154    1.227260
      7          1           0       -0.600320   -0.553195    1.231933
      8          1           0        0.595346    0.636751   -0.494366
      9          1           0       -0.993072    1.646040   -0.871285
     10          1           0       -0.157185    1.907226    0.720167
     11          1           0       -2.343272   -0.413748   -0.974880
     12          1           0        2.526539    0.024818    0.878972
 ---------------------------------------------------------------------

 SCF Done:  E(UM062X) =  -305.894382945     A.U. after    1 cycles

 The electronic state is 2-A.
 Alpha  occ. eigenvalues --  -19.69141 -19.68753 -19.62298 -10.59323 -10.55933
 Alpha  occ. eigenvalues --   -1.27209  -1.15091  -0.99262  -0.86231  -0.72426
 Alpha  occ. eigenvalues --   -0.62722  -0.60047  -0.57332  -0.54304  -0.52380
 Alpha  occ. eigenvalues --   -0.52158  -0.46203  -0.41940  -0.40631  -0.37678
 Alpha  occ. eigenvalues --   -0.36453  -0.29894
 Alpha virt. eigenvalues --    0.05487   0.06777   0.10333   0.10818   0.13499
 Alpha virt. eigenvalues --    0.14908   0.15358   0.19576   0.23409   0.25905
 Alpha virt. eigenvalues --    0.28132   0.31648   0.35173   0.36372   0.38843

  Beta  occ. eigenvalues --  -19.68977 -19.67815 -19.62299 -10.59347 -10.55405
  Beta  occ. eigenvalues --   -1.25539  -1.15059  -0.96833  -0.84762  -0.71205
  Beta  occ. eigenvalues --   -0.61089  -0.58618  -0.55379  -0.53462  -0.51414
  Beta  occ. eigenvalues --   -0.49918  -0.45611  -0.41044  -0.37553  -0.36199
  Beta  occ. eigenvalues --   -0.35053
  Beta virt. eigenvalues --   -0.08285   0.05516   0.06787   0.10409   0.10685
  Beta virt. eigenvalues --    0.13766   0.15403   0.15570   0.19568   0.23705
  Beta virt. eigenvalues --    0.26609   0.28445   0.31800   0.35710   0.36638

 Mulliken charges and spin densities:
               1          2
     1  O   -0.369397   0.001587
     2  O   -0.237472   0.050759
     3  O   -0.207971   0.386179
     4  C   -0.030597  -0.037063
     5  C   -0.390569   0.634882
     6  H    0.094779   0.041389
     7  H    0.129465   0.012813
     8  H    0.241575  -0.028678
     9  H    0.129412  -0.027465
    10  H    0.136773  -0.032283
    11  H    0.238739   0.000266
    12  H    0.265264  -0.002385
 Sum of Mulliken charges =  -0.00000   1.00000

 Dipole moment (field-independent basis, Debye):
    X=             -0.8469    Y=              3.0494    Z=              1.4199  Tot=              3.4688
 Quadrupole moment (field-independent basis, Debye-Ang):
   XX=            -26.1555   YY=            -33.5513   ZZ=            -29.1718
   XY=             -0.7985   XZ=              5.5316   YZ=             -0.1121

  Exact polarizability:  64.645  -8.942  43.117  -0.096  -0.646  41.238
 Approx polarizability:  62.863  -9.310  49.558   0.402  -1.362  50.486

 ******    1 imaginary frequencies (negative Signs) ******

                      1                      2                      3
                      A                      A                      A
 Frequencies --  -1846.4651                34.4146                89.2808
 Red. masses --      1.1032                 4.7084                 5.2553
 Frc consts  --      2.2160                 0.0033                 0.0247
 IR Inten    --   1448.8602                 2.4385                 5.2734

                      4                      5                      6
                      A                      A                      A
 Frequencies --    126.8086               229.1690               286.6469
 Red. masses --      2.6491                 1.9566                 1.2047
 Frc consts  --      0.0251                 0.0605                 0.0583
 IR Inten    --      3.2601                10.3308               113.9620

                      7                      8                      9
                      A                      A                      A
 Frequencies --    409.3504               450.6786               548.0783
 Red. masses --      1.3968                 1.8612                 1.3240
 Frc consts  --      0.1379                 0.2227                 0.2343
 IR Inten    --     85.3863                17.6486                13.7302

                     10                     11                     12
                      A                      A                      A
 Frequencies --    566.9365               841.7039               900.9496
 Red. masses --      3.5813                 1.1869                 1.9381
 Frc consts  --      0.6782                 0.4954                 0.9269
 IR Inten    --      2.7796                17.5386                10.0398

                     13                     14                     15
                      A                      A                      A
 Frequencies --   1051.3309              1066.9198              1079.2739
 Red. masses --      1.4334                 1.4048                 4.2819
 Frc consts  --      0.9334                 0.9422                 2.9386
 IR Inten    --     32.4599                 8.1856                24.1959

                     16                     17                     18
                      A                      A                      A
 Frequencies --   1143.7413              1164.0488              1258.2868
 Red. masses --      3.6463                 1.5646                 1.2312
 Frc consts  --      2.8104                 1.2491                 1.1485
 IR Inten    --    106.5823                 8.9911                13.9383

                     19                     20                     21
                      A                      A                      A
 Frequencies --   1365.2837              1416.2944              1418.5166
 Red. masses --      1.2687                 1.1137                 1.2456
 Frc consts  --      1.3934                 1.3163                 1.4767
 IR Inten    --      9.4019                51.9758                34.9437

                     22                     23                     24
                      A                      A                      A
 Frequencies --   1449.8650              1475.5530              1493.3691
 Red. masses --      1.1836                 1.0530                 1.0763
 Frc consts  --      1.4660                 1.3508                 1.4142
 IR Inten    --      7.3478                 6.6865                10.3387

                     25                     26                     27
                      A                      A                      A
 Frequencies --   2974.6928              3092.4734              3102.5565
 Red. masses --      1.0715                 1.0765                 1.0652
 Frc consts  --      5.5866                 6.0654                 6.0413
 IR Inten    --     33.8038                 2.5502                 7.9710

                     28                     29                     30
                      A                      A                      A
 Frequencies --   3186.5727              3808.1289              3884.3853
 Red. masses --      1.1110                 1.0684                 1.0664
 Frc consts  --      6.6466                 9.1283                 9.4797
 IR Inten    --     10.9789                62.5192                38.2793

 - Thermochemistry -
 -------------------
 Temperature   298.150 Kelvin.  Pressure   1.00000 Atm.
 Atom     1 has atomic number  8 and mass  15.99491

 Molecular mass:    79.03952 amu.
 Principal axes and moments of inertia in atomic units:
                           1         2         3
     Eigenvalues --   237.14551 760.07618 821.98450
           X            0.99992  -0.00769   0.00971
           Y            0.00774   0.99996  -0.00484
           Z           -0.00968   0.00491   0.99994
 This molecule is an asymmetric top.
 Rotational symmetry number  1.
 Rotational temperatures (Kelvin)      0.36524     0.11395     0.10537
 Rotational constants (GHZ):           7.61027     2.37442     2.19559
    1 imaginary frequencies ignored.
 Zero-point vibrational energy     238746.6 (Joules/Mol)
                                   57.06180 (Kcal/Mol)
 Warning -- explicit consideration of   9 degrees of freedom as
           vibrations may cause significant error
 Vibrational temperatures:     49.51   128.46   182.45   329.72   412.42
          (Kelvin)            588.96   648.43   788.56   815.70  1211.02
                             1296.27  1512.63  1535.06  1552.83  1645.59
                             1674.81  1810.39  1964.34  2037.73  2040.93
                             2086.03  2122.99  2148.62  4279.92  4449.38
                             4463.89  4584.77  5479.05  5588.76

 Zero-point correction=                           0.090934 (Hartree/Particle)
 Thermal correction to Energy=                    0.098261
 Thermal correction to Enthalpy=                  0.099205
 Thermal correction to Gibbs Free Energy=         0.058327
 Sum of electronic and zero-point Energies=           -305.803449
 Sum of electronic and thermal Energies=              -305.796122
 Sum of electronic and thermal Enthalpies=            -305.795178
 Sum of electronic and thermal Free Energies=         -305.836056

                     E (Thermal)             CV                S
                      KCal/Mol        Cal/Mol-Kelvin    Cal/Mol-Kelvin
 Total                   61.659             23.604             86.034
 Electronic               0.000              0.000              1.377
 Translational            0.889              2.981             39.017
 Rotational               0.889              2.981             26.496
 Vibrational             59.882             17.642             19.144
 Vibration     1          0.594              1.983              5.557
 Vibration     2          0.602              1.957              3.676
 Vibration     3          0.611              1.926              2.994
 Vibration     4          0.652              1.796              1.885
 Vibration     5          0.684              1.698              1.494
 Vibration     6          0.774              1.450              0.929
 Vibration     7          0.809              1.359              0.794
 Vibration     8          0.903              1.144              0.548
 Vibration     9          0.923              1.103              0.510

                           ! Non-Optimized Parameters !
 Normal termination of Gaussian 16 at Sat Jun 22 12:51:15 2019.
