 Gaussian 16, Revision A.03,
 Gaussian 16:  EM64L-G16RevA.03 25-Dec-2016

 ----------------------------------------------------------------------
 #p m062x/cc-pVTZ Opt=(ModRedun,Loose,maxcycles=900) Int(Grid=SG1) scf=
 (maxcycle=900)
 ----------------------------------------------------------------------

 ------------------------------
 Gaussian input prepared by ASE
 ------------------------------
 Symbolic Z-matrix:
 Charge =  0 Multiplicity = 2

 SCF Done:  E(UM062X) =  -305.884489305     A.U. after   17 cycles
 SCF Done:  E(UM062X) =  -305.891445263     A.U. after   17 cycles
 SCF Done:  E(UM062X) =  -305.874821557     A.U. after   18 cycles
 SCF Done:  E(UM062X) =  -305.889960390     A.U. after   15 cycles
 SCF Done:  E(UM062X) =  -305.893053149     A.U. after   14 cycles
 SCF Done:  E(UM062X) =  -305.894567675     A.U. after   14 cycles
 SCF Done:  E(UM062X) =  -305.895768615     A.U. after   14 cycles
 SCF Done:  E(UM062X) =  -305.892685531     A.U. after   15 cycles
 SCF Done:  E(UM062X) =  -305.896206861     A.U. after   14 cycles
 SCF Done:  E(UM062X) =  -305.896639428     A.U. after   14 cycles
 SCF Done:  E(UM062X) =  -305.896639700     A.U. after   14 cycles
 SCF Done:  E(UM062X) =  -305.896884520     A.U. after   12 cycles
 SCF Done:  E(UM062X) =  -305.896978067     A.U. after   12 cycles
 SCF Done:  E(UM062X) =  -305.897021160     A.U. after   12 cycles
 SCF Done:  E(UM062X) =  -305.896999830     A.U. after   12 cycles
 SCF Done:  E(UM062X) =  -305.897034006     A.U. after   12 cycles
 Optimization completed.
    -- Stationary point found.

                         Standard orientation:
 ---------------------------------------------------------------------
 Center     Atomic      Atomic             Coordinates (Angstroms)
 Number     Number       Type             X           Y           Z
 ---------------------------------------------------------------------
      1          8           0        0.994489   -1.029530   -0.503238
      2          8           0       -1.572810   -0.608030    0.463342
      3          8           0       -1.542310    0.468955   -0.405136
      4          6           0        1.294428    0.000932    0.435196
      5          6           0        0.701219    1.287286   -0.037288
      6          1           0        0.899276   -0.256783    1.423176
      7          1           0        2.382447    0.114359    0.528521
      8          1           0       -0.658323    1.129623   -0.038262
      9          1           0        0.870038    2.122118    0.637807
     10          1           0        0.898245    1.518007   -1.079567
     11          1           0        1.563514   -1.782002   -0.326660
     12          1           0       -0.964027   -1.225794    0.027800
 ---------------------------------------------------------------------

 The electronic state is 2-A.
 Alpha  occ. eigenvalues --  -19.68122 -19.67608 -19.64594 -10.60517 -10.55541
 Alpha  occ. eigenvalues --   -1.26470  -1.16862  -0.98152  -0.86919  -0.71729
 Alpha  occ. eigenvalues --   -0.63615  -0.61104  -0.57525  -0.55094  -0.51705
 Alpha  occ. eigenvalues --   -0.49963  -0.47346  -0.44017  -0.40351  -0.37903
 Alpha  occ. eigenvalues --   -0.36505  -0.29138
 Alpha virt. eigenvalues --    0.04619   0.08692   0.10544   0.11584   0.13130
 Alpha virt. eigenvalues --    0.14459   0.17486   0.19584   0.20759   0.24717
 Alpha virt. eigenvalues --    0.28275   0.30083   0.36799   0.37492   0.38112

  Beta  occ. eigenvalues --  -19.67416 -19.67139 -19.64587 -10.60547 -10.55004
  Beta  occ. eigenvalues --   -1.24657  -1.16802  -0.95621  -0.85661  -0.70318
  Beta  occ. eigenvalues --   -0.62565  -0.59953  -0.55674  -0.53631  -0.49504
  Beta  occ. eigenvalues --   -0.48881  -0.46399  -0.43230  -0.38530  -0.35274
  Beta  occ. eigenvalues --   -0.34938
  Beta virt. eigenvalues --   -0.07126   0.04551   0.08512   0.10702   0.11428
  Beta virt. eigenvalues --    0.13316   0.14760   0.17884   0.19658   0.21221
  Beta virt. eigenvalues --    0.25235   0.28257   0.30410   0.37177   0.37686

 Mulliken charges and spin densities:
               1          2
     1  O   -0.410338   0.002774
     2  O   -0.246192   0.061363
     3  O   -0.201556   0.405390
     4  C   -0.094036  -0.028573
     5  C   -0.351976   0.601615
     6  H    0.132392   0.008992
     7  H    0.117277   0.036478
     8  H    0.234458  -0.031949
     9  H    0.128273  -0.024783
    10  H    0.149265  -0.027823
    11  H    0.265533  -0.000409
    12  H    0.276898  -0.003076
 Sum of Mulliken charges =  -0.00000   1.00000

 Dipole moment (field-independent basis, Debye):
    X=              3.8365    Y=             -0.8044    Z=              0.8591  Tot=              4.0130
 Quadrupole moment (field-independent basis, Debye-Ang):
   XX=            -32.9925   YY=            -25.6002   ZZ=            -32.6299
   XY=             -1.3559   XZ=              1.4437   YZ=              0.1364

 Normal termination of Gaussian 16 at Thu May 30 06:38:15 2019.
