 Gaussian 16, Revision A.03,
 Gaussian 16:  EM64L-G16RevA.03 25-Dec-2016

 ----------------------------------------------------------------------
 #p m062x/cc-pVTZ opt=(ts,calcfc,noeigentest,maxcycles=900) freq scf=(m
 axcycle=900) IOP(7/33=1,2/16=3)
 ----------------------------------------------------------------------

 ------------------------------
 Gaussian input prepared by ASE
 ------------------------------
 Symbolic Z-matrix:
 Charge =  0 Multiplicity = 2

 SCF Done:  E(UM062X) =  -305.913804586     A.U. after   20 cycles
 SCF Done:  E(UM062X) =  -305.924845194     A.U. after   21 cycles
 SCF Done:  E(UM062X) =  -305.933345083     A.U. after   20 cycles
 SCF Done:  E(UM062X) =  -305.939116063     A.U. after   20 cycles
 SCF Done:  E(UM062X) =  -305.942612633     A.U. after   21 cycles
 SCF Done:  E(UM062X) =  -305.946094865     A.U. after   22 cycles
 SCF Done:  E(UM062X) =  -305.946576466     A.U. after   22 cycles
 SCF Done:  E(UM062X) =  -305.948417836     A.U. after   16 cycles
 SCF Done:  E(UM062X) =  -305.947507445     A.U. after   17 cycles
 SCF Done:  E(UM062X) =  -305.948783466     A.U. after   18 cycles
 SCF Done:  E(UM062X) =  -305.944798653     A.U. after   15 cycles
 SCF Done:  E(UM062X) =  -305.944869931     A.U. after   15 cycles
 SCF Done:  E(UM062X) =  -305.944851703     A.U. after   15 cycles
 SCF Done:  E(UM062X) =  -305.944875381     A.U. after   14 cycles
 SCF Done:  E(UM062X) =  -305.944878194     A.U. after   14 cycles
 SCF Done:  E(UM062X) =  -305.944879516     A.U. after   13 cycles
 SCF Done:  E(UM062X) =  -305.944880222     A.U. after   13 cycles
 SCF Done:  E(UM062X) =  -305.944880573     A.U. after   12 cycles
 SCF Done:  E(UM062X) =  -305.944880745     A.U. after   12 cycles
 Optimization completed.
    -- Stationary point found.
 Normal termination of Gaussian 16 at Sat Jun 22 13:58:14 2019.

 ----------------------------------------------------------------------
 #P Geom=AllCheck Guess=TCheck SCRF=Check Test GenChk UM062X/CC-pVTZ Fr
 eq
 ----------------------------------------------------------------------

 Structure from the checkpoint file:  "/scratch/harms.n/gauss_scrdir/Gau-46710.chk"
 ------------------------------
 Gaussian input prepared by ASE
 ------------------------------
 Charge =  0 Multiplicity = 2

                         Standard orientation:
 ---------------------------------------------------------------------
 Center     Atomic      Atomic             Coordinates (Angstroms)
 Number     Number       Type             X           Y           Z
 ---------------------------------------------------------------------
      1          8           0       -0.416846   -1.090543   -0.187293
      2          8           0        1.849079   -0.038191    0.645483
      3          8           0        1.948870    0.426983   -0.572132
      4          6           0       -1.655932   -0.428291    0.076105
      5          6           0       -1.532352    1.098590    0.051936
      6          1           0       -1.961821   -0.785259    1.056583
      7          1           0       -2.399719   -0.774717   -0.642924
      8          1           0       -2.177137    1.543798   -0.703221
      9          1           0       -1.788146    1.540047    1.013020
     10          1           0       -0.074628   -0.782908   -1.035095
     11          1           0        0.987786   -0.533412    0.632096
     12          1           0       -0.505451    1.384661   -0.177167
 ---------------------------------------------------------------------

 SCF Done:  E(UM062X) =  -305.944880745     A.U. after    1 cycles

 The electronic state is 2-A.
 Alpha  occ. eigenvalues --  -19.72503 -19.69525 -19.65315 -10.60398 -10.54029
 Alpha  occ. eigenvalues --   -1.32628  -1.17448  -0.96611  -0.86225  -0.73783
 Alpha  occ. eigenvalues --   -0.64139  -0.60378  -0.58229  -0.55848  -0.54675
 Alpha  occ. eigenvalues --   -0.52969  -0.47601  -0.45260  -0.41816  -0.38532
 Alpha  occ. eigenvalues --   -0.36758  -0.36335
 Alpha virt. eigenvalues --    0.05412   0.09306   0.09973   0.10700   0.13044
 Alpha virt. eigenvalues --    0.14516   0.18016   0.21066   0.22113   0.23925
 Alpha virt. eigenvalues --    0.28382   0.30717   0.32004   0.36632   0.38149

  Beta  occ. eigenvalues --  -19.71677 -19.68076 -19.65322 -10.60398 -10.54028
  Beta  occ. eigenvalues --   -1.29252  -1.17443  -0.91748  -0.86217  -0.73762
  Beta  occ. eigenvalues --   -0.62469  -0.60296  -0.54872  -0.53582  -0.52735
  Beta  occ. eigenvalues --   -0.47955  -0.47281  -0.45136  -0.41758  -0.38228
  Beta  occ. eigenvalues --   -0.33929
  Beta virt. eigenvalues --   -0.05008   0.05442   0.09388   0.10008   0.10721
  Beta virt. eigenvalues --    0.13273   0.14526   0.18128   0.21508   0.22331
  Beta virt. eigenvalues --    0.24897   0.28398   0.30918   0.32019   0.36666

 Mulliken charges and spin densities:
               1          2
     1  O   -0.405219  -0.001679
     2  O   -0.113214   0.303762
     3  O   -0.197221   0.713415
     4  C   -0.035504   0.000201
     5  C   -0.358626   0.002012
     6  H    0.118173  -0.000061
     7  H    0.111206   0.000043
     8  H    0.116095  -0.000075
     9  H    0.117647   0.000250
    10  H    0.261650  -0.001746
    11  H    0.262003  -0.011713
    12  H    0.123010  -0.004409
 Sum of Mulliken charges =  -0.00000   1.00000

 Dipole moment (field-independent basis, Debye):
    X=             -3.1952    Y=             -0.1343    Z=             -0.1571  Tot=              3.2019
 Quadrupole moment (field-independent basis, Debye-Ang):
   XX=            -34.1622   YY=            -32.8300   ZZ=            -29.2400
   XY=             -1.9800   XZ=              0.1942   YZ=              0.4356

  Exact polarizability:  43.062   0.766  38.069  -0.861  -2.333  40.402
 Approx polarizability:  45.070   1.253  41.822  -1.386  -4.068  50.619

 ******    1 imaginary frequencies (negative Signs) ******

                      1                      2                      3
                      A                      A                      A
 Frequencies --   -255.6978                52.5887                76.7808
 Red. masses --      1.0846                 2.9828                 3.6525
 Frc consts  --      0.0418                 0.0049                 0.0127
 IR Inten    --      0.1444                 2.6111                 2.4673

                      4                      5                      6
                      A                      A                      A
 Frequencies --    105.3161               168.9851               278.6837
 Red. masses --      4.1810                 4.2632                 4.9687
 Frc consts  --      0.0273                 0.0717                 0.2274
 IR Inten    --      8.4961                13.8417                76.1787

                      7                      8                      9
                      A                      A                      A
 Frequencies --    451.9248               533.7163               726.6975
 Red. masses --      1.9656                 1.4873                 1.0563
 Frc consts  --      0.2365                 0.2496                 0.3287
 IR Inten    --     20.1932               124.2442                92.9494

                     10                     11                     12
                      A                      A                      A
 Frequencies --    854.1120               929.2920              1053.2420
 Red. masses --      1.1225                 2.2943                 2.1516
 Frc consts  --      0.4825                 1.1674                 1.4063
 IR Inten    --      6.4157                22.3273                 7.1109

                     13                     14                     15
                      A                      A                      A
 Frequencies --   1116.0892              1149.5193              1256.0187
 Red. masses --      1.9133                 1.9246                 1.1638
 Frc consts  --      1.4042                 1.4984                 1.0817
 IR Inten    --    127.6250                21.9330                18.2051

                     16                     17                     18
                      A                      A                      A
 Frequencies --   1288.3035              1381.0111              1414.5245
 Red. masses --     13.7304                 1.2053                 1.1870
 Frc consts  --     13.4267                 1.3543                 1.3993
 IR Inten    --     24.5776                 3.6397                20.3850

                     19                     20                     21
                      A                      A                      A
 Frequencies --   1441.9238              1498.9859              1500.0472
 Red. masses --      1.2468                 1.0361                 1.0362
 Frc consts  --      1.5274                 1.3717                 1.3737
 IR Inten    --     39.1263                 3.7300                 3.7263

                     22                     23                     24
                      A                      A                      A
 Frequencies --   1533.5776              1586.7026              3072.7785
 Red. masses --      1.0899                 1.1119                 1.0596
 Frc consts  --      1.5103                 1.6493                 5.8944
 IR Inten    --      2.4719                63.1026                44.3665

                     25                     26                     27
                      A                      A                      A
 Frequencies --   3075.4941              3131.3288              3144.1125
 Red. masses --      1.0456                 1.0999                 1.1004
 Frc consts  --      5.8271                 6.3540                 6.4088
 IR Inten    --     13.5459                 7.4079                12.5523

                     28                     29                     30
                      A                      A                      A
 Frequencies --   3157.9394              3278.8183              3827.2634
 Red. masses --      1.1033                 1.0692                 1.0660
 Frc consts  --      6.4824                 6.7727                 9.1995
 IR Inten    --     22.1490               712.0879                72.9090

 - Thermochemistry -
 -------------------
 Temperature   298.150 Kelvin.  Pressure   1.00000 Atm.
 Atom     1 has atomic number  8 and mass  15.99491

 Molecular mass:    79.03952 amu.
 Principal axes and moments of inertia in atomic units:
                           1         2         3
     Eigenvalues --   230.38435 766.72293 874.64454
           X            0.99964  -0.02666  -0.00045
           Y            0.02666   0.99957   0.01227
           Z            0.00012  -0.01228   0.99992
 This molecule is an asymmetric top.
 Rotational symmetry number  1.
 Rotational temperatures (Kelvin)      0.37595     0.11297     0.09903
 Rotational constants (GHZ):           7.83361     2.35384     2.06340
    1 imaginary frequencies ignored.
 Zero-point vibrational energy     257710.2 (Joules/Mol)
                                   61.59421 (Kcal/Mol)
 Warning -- explicit consideration of   7 degrees of freedom as
           vibrations may cause significant error
 Vibrational temperatures:     75.66   110.47   151.53   243.13   400.96
          (Kelvin)            650.22   767.90  1045.56  1228.88  1337.04
                             1515.38  1605.80  1653.90  1807.13  1853.58
                             1986.97  2035.19  2074.61  2156.71  2158.23
                             2206.48  2282.91  4421.04  4424.95  4505.28
                             4523.68  4543.57  4717.49  5506.58

 Zero-point correction=                           0.098157 (Hartree/Particle)
 Thermal correction to Energy=                    0.105197
 Thermal correction to Enthalpy=                  0.106141
 Thermal correction to Gibbs Free Energy=         0.065641
 Sum of electronic and zero-point Energies=           -305.846724
 Sum of electronic and thermal Energies=              -305.839684
 Sum of electronic and thermal Enthalpies=            -305.838740
 Sum of electronic and thermal Free Energies=         -305.879240

                     E (Thermal)             CV                S
                      KCal/Mol        Cal/Mol-Kelvin    Cal/Mol-Kelvin
 Total                   66.012             21.511             85.239
 Electronic               0.000              0.000              1.377
 Translational            0.889              2.981             39.017
 Rotational               0.889              2.981             26.538
 Vibrational             64.235             15.550             18.307
 Vibration     1          0.596              1.977              4.718
 Vibration     2          0.599              1.965              3.972
 Vibration     3          0.605              1.945              3.353
 Vibration     4          0.625              1.881              2.447
 Vibration     5          0.679              1.713              1.542
 Vibration     6          0.811              1.357              0.790
 Vibration     7          0.889              1.175              0.579

                           ! Non-Optimized Parameters !
 Normal termination of Gaussian 16 at Sat Jun 22 14:02:43 2019.
