 Gaussian 16, Revision A.03,
 Gaussian 16:  EM64L-G16RevA.03 25-Dec-2016

 ----------------------------------------------------------------------
 #p m062x/cc-pVTZ Opt=(ModRedun,Loose,maxcycles=900) Int(Grid=SG1) scf=
 (maxcycle=900)
 ----------------------------------------------------------------------

 ------------------------------
 Gaussian input prepared by ASE
 ------------------------------
 Symbolic Z-matrix:
 Charge =  0 Multiplicity = 2

 SCF Done:  E(UM062X) =  -305.875980882     A.U. after   17 cycles
 SCF Done:  E(UM062X) =  -305.883202061     A.U. after   15 cycles
 SCF Done:  E(UM062X) =  -305.884811820     A.U. after   15 cycles
 SCF Done:  E(UM062X) =  -305.886833400     A.U. after   16 cycles
 SCF Done:  E(UM062X) =  -305.887933150     A.U. after   17 cycles
 SCF Done:  E(UM062X) =  -305.888878194     A.U. after   14 cycles
 SCF Done:  E(UM062X) =  -305.890732798     A.U. after   13 cycles
 SCF Done:  E(UM062X) =  -305.892888014     A.U. after   15 cycles
 SCF Done:  E(UM062X) =  -305.894489404     A.U. after   14 cycles
 SCF Done:  E(UM062X) =  -305.896183411     A.U. after   15 cycles
 SCF Done:  E(UM062X) =  -305.897442523     A.U. after   14 cycles
 SCF Done:  E(UM062X) =  -305.897049503     A.U. after   15 cycles
 SCF Done:  E(UM062X) =  -305.897805824     A.U. after   12 cycles
 SCF Done:  E(UM062X) =  -305.897967762     A.U. after   12 cycles
 SCF Done:  E(UM062X) =  -305.897996193     A.U. after   12 cycles
 SCF Done:  E(UM062X) =  -305.898001164     A.U. after   11 cycles
 Optimization completed.
    -- Stationary point found.

                         Standard orientation:
 ---------------------------------------------------------------------
 Center     Atomic      Atomic             Coordinates (Angstroms)
 Number     Number       Type             X           Y           Z
 ---------------------------------------------------------------------
      1          8           0        1.296372   -1.083828    0.374338
      2          8           0       -1.715681   -0.404158   -0.533722
      3          8           0       -1.339916    0.150182    0.692285
      4          6           0        1.250652   -0.017415   -0.542256
      5          6           0        0.745130    1.246152    0.079608
      6          1           0        2.276081    0.136452   -0.893141
      7          1           0        0.644627   -0.269902   -1.418789
      8          1           0       -0.550269    0.961762    0.417976
      9          1           0        0.645085    2.105625   -0.578997
     10          1           0        1.156946    1.471246    1.059396
     11          1           0        0.404191   -1.203874    0.717851
     12          1           0       -2.477551    0.128703   -0.791621
 ---------------------------------------------------------------------

 The electronic state is 2-A.
 Alpha  occ. eigenvalues --  -19.70128 -19.70079 -19.61014 -10.58785 -10.56223
 Alpha  occ. eigenvalues --   -1.28095  -1.14050  -1.00759  -0.86006  -0.72025
 Alpha  occ. eigenvalues --   -0.63720  -0.60917  -0.57483  -0.54300  -0.52807
 Alpha  occ. eigenvalues --   -0.50450  -0.47218  -0.41949  -0.40837  -0.39198
 Alpha  occ. eigenvalues --   -0.35252  -0.30260
 Alpha virt. eigenvalues --    0.05238   0.08478   0.10560   0.12124   0.12958
 Alpha virt. eigenvalues --    0.13957   0.15235   0.19910   0.21551   0.25976
 Alpha virt. eigenvalues --    0.28660   0.30259   0.36055   0.37749   0.39535

  Beta  occ. eigenvalues --  -19.69956 -19.69218 -19.61010 -10.58816 -10.55689
  Beta  occ. eigenvalues --   -1.26528  -1.14000  -0.98477  -0.84413  -0.70668
  Beta  occ. eigenvalues --   -0.62606  -0.58707  -0.55796  -0.53001  -0.51885
  Beta  occ. eigenvalues --   -0.49244  -0.46384  -0.40671  -0.37997  -0.37662
  Beta  occ. eigenvalues --   -0.34900
  Beta virt. eigenvalues --   -0.08571   0.05264   0.08390   0.10549   0.12179
  Beta virt. eigenvalues --    0.13023   0.14423   0.15344   0.20118   0.21680
  Beta virt. eigenvalues --    0.26633   0.28738   0.30356   0.36282   0.37913

 Mulliken charges and spin densities:
               1          2
     1  O   -0.400242   0.001345
     2  O   -0.242660   0.036810
     3  O   -0.246824   0.353185
     4  C   -0.043462  -0.036469
     5  C   -0.372319   0.664246
     6  H    0.125851   0.038192
     7  H    0.115340   0.010022
     8  H    0.234200  -0.011474
     9  H    0.133229  -0.028049
    10  H    0.156998  -0.027715
    11  H    0.263844   0.001205
    12  H    0.276047  -0.001298
 Sum of Mulliken charges =  -0.00000   1.00000

 Dipole moment (field-independent basis, Debye):
    X=             -1.2730    Y=              2.6180    Z=             -1.4566  Tot=              3.2552
 Quadrupole moment (field-independent basis, Debye-Ang):
   XX=            -28.9872   YY=            -31.8190   ZZ=            -30.6239
   XY=              1.5052   XZ=              1.5102   YZ=             -0.7263

 Normal termination of Gaussian 16 at Sat Jun 22 12:33:49 2019.
