 Gaussian 16, Revision A.03,
 Gaussian 16:  EM64L-G16RevA.03 25-Dec-2016

 ----------------------------------------------------------------------
 #p m062x/cc-pVTZ opt=(ts,calcfc,noeigentest,maxcycles=900) freq scf=(m
 axcycle=900) IOP(7/33=1,2/16=3)
 ----------------------------------------------------------------------

 ------------------------------
 Gaussian input prepared by ASE
 ------------------------------
 Symbolic Z-matrix:
 Charge =  0 Multiplicity = 2

 SCF Done:  E(UM062X) =  -305.890480807     A.U. after   18 cycles
 SCF Done:  E(UM062X) =  -305.893733311     A.U. after   17 cycles
 SCF Done:  E(UM062X) =  -305.894183045     A.U. after   15 cycles
 SCF Done:  E(UM062X) =  -305.894263360     A.U. after   15 cycles
 SCF Done:  E(UM062X) =  -305.894296081     A.U. after   14 cycles
 SCF Done:  E(UM062X) =  -305.894324218     A.U. after   14 cycles
 SCF Done:  E(UM062X) =  -305.894331748     A.U. after   13 cycles
 SCF Done:  E(UM062X) =  -305.894350101     A.U. after   14 cycles
 SCF Done:  E(UM062X) =  -305.894362307     A.U. after   11 cycles
 SCF Done:  E(UM062X) =  -305.894373933     A.U. after   13 cycles
 SCF Done:  E(UM062X) =  -305.894377245     A.U. after   13 cycles
 SCF Done:  E(UM062X) =  -305.894378882     A.U. after   13 cycles
 SCF Done:  E(UM062X) =  -305.894379585     A.U. after   12 cycles
 SCF Done:  E(UM062X) =  -305.894380018     A.U. after   12 cycles
 SCF Done:  E(UM062X) =  -305.894380382     A.U. after   11 cycles
 SCF Done:  E(UM062X) =  -305.894381747     A.U. after   11 cycles
 SCF Done:  E(UM062X) =  -305.894382650     A.U. after   10 cycles
 SCF Done:  E(UM062X) =  -305.894382894     A.U. after   11 cycles
 SCF Done:  E(UM062X) =  -305.894382946     A.U. after    7 cycles
 Optimization completed.
    -- Stationary point found.
 Normal termination of Gaussian 16 at Sat Jun 22 12:48:02 2019.

 ----------------------------------------------------------------------
 #P Geom=AllCheck Guess=TCheck SCRF=Check Test GenChk UM062X/CC-pVTZ Fr
 eq
 ----------------------------------------------------------------------

 Structure from the checkpoint file:  "/scratch/harms.n/gauss_scrdir/Gau-36555.chk"
 ------------------------------
 Gaussian input prepared by ASE
 ------------------------------
 Charge =  0 Multiplicity = 2

                         Standard orientation:
 ---------------------------------------------------------------------
 Center     Atomic      Atomic             Coordinates (Angstroms)
 Number     Number       Type             X           Y           Z
 ---------------------------------------------------------------------
      1          8           0       -1.754982   -0.882690   -0.378429
      2          8           0        1.896312   -0.568494    0.451667
      3          8           0        1.595277    0.093242   -0.730966
      4          6           0       -1.270860    0.019791    0.589382
      5          6           0       -0.534710    1.184328    0.001246
      6          1           0       -2.087323    0.391025    1.227257
      7          1           0       -0.600312   -0.553241    1.231913
      8          1           0        0.595370    0.636883   -0.494228
      9          1           0       -0.993102    1.646022   -0.871255
     10          1           0       -0.157380    1.907287    0.720271
     11          1           0       -2.343235   -0.413783   -0.974918
     12          1           0        2.526540    0.024625    0.879023
 ---------------------------------------------------------------------

 SCF Done:  E(UM062X) =  -305.894382946     A.U. after    1 cycles

 The electronic state is 2-A.
 Alpha  occ. eigenvalues --  -19.69141 -19.68753 -19.62298 -10.59323 -10.55933
 Alpha  occ. eigenvalues --   -1.27208  -1.15091  -0.99262  -0.86231  -0.72426
 Alpha  occ. eigenvalues --   -0.62722  -0.60047  -0.57332  -0.54304  -0.52380
 Alpha  occ. eigenvalues --   -0.52157  -0.46203  -0.41940  -0.40631  -0.37677
 Alpha  occ. eigenvalues --   -0.36453  -0.29893
 Alpha virt. eigenvalues --    0.05487   0.06777   0.10333   0.10818   0.13499
 Alpha virt. eigenvalues --    0.14908   0.15358   0.19576   0.23409   0.25906
 Alpha virt. eigenvalues --    0.28133   0.31647   0.35173   0.36372   0.38843

  Beta  occ. eigenvalues --  -19.68976 -19.67815 -19.62299 -10.59347 -10.55405
  Beta  occ. eigenvalues --   -1.25539  -1.15059  -0.96833  -0.84762  -0.71205
  Beta  occ. eigenvalues --   -0.61089  -0.58618  -0.55379  -0.53462  -0.51414
  Beta  occ. eigenvalues --   -0.49917  -0.45611  -0.41044  -0.37553  -0.36199
  Beta  occ. eigenvalues --   -0.35053
  Beta virt. eigenvalues --   -0.08285   0.05516   0.06788   0.10409   0.10685
  Beta virt. eigenvalues --    0.13766   0.15402   0.15570   0.19568   0.23705
  Beta virt. eigenvalues --    0.26610   0.28446   0.31799   0.35709   0.36638

 Mulliken charges and spin densities:
               1          2
     1  O   -0.369397   0.001586
     2  O   -0.237471   0.050763
     3  O   -0.207973   0.386174
     4  C   -0.030598  -0.037063
     5  C   -0.390557   0.634878
     6  H    0.094779   0.041389
     7  H    0.129462   0.012815
     8  H    0.241574  -0.028676
     9  H    0.129411  -0.027465
    10  H    0.136768  -0.032281
    11  H    0.238739   0.000266
    12  H    0.265264  -0.002385
 Sum of Mulliken charges =  -0.00000   1.00000

 Dipole moment (field-independent basis, Debye):
    X=             -0.8470    Y=              3.0491    Z=              1.4202  Tot=              3.4686
 Quadrupole moment (field-independent basis, Debye-Ang):
   XX=            -26.1551   YY=            -33.5515   ZZ=            -29.1715
   XY=             -0.7992   XZ=              5.5320   YZ=             -0.1124

  Exact polarizability:  64.646  -8.943  43.117  -0.096  -0.646  41.238
 Approx polarizability:  62.864  -9.311  49.559   0.401  -1.363  50.485

 ******    1 imaginary frequencies (negative Signs) ******

                      1                      2                      3
                      A                      A                      A
 Frequencies --  -1846.4796                34.4049                89.2750
 Red. masses --      1.1032                 4.7083                 5.2556
 Frc consts  --      2.2160                 0.0033                 0.0247
 IR Inten    --   1448.9314                 2.4394                 5.2726

                      4                      5                      6
                      A                      A                      A
 Frequencies --    126.8060               229.1708               286.6492
 Red. masses --      2.6490                 1.9567                 1.2047
 Frc consts  --      0.0251                 0.0605                 0.0583
 IR Inten    --      3.2610                10.3300               113.9639

                      7                      8                      9
                      A                      A                      A
 Frequencies --    409.3569               450.6750               548.0397
 Red. masses --      1.3968                 1.8613                 1.3242
 Frc consts  --      0.1379                 0.2227                 0.2343
 IR Inten    --     85.3860                17.6368                13.7345

                     10                     11                     12
                      A                      A                      A
 Frequencies --    566.9359               841.7070               900.9506
 Red. masses --      3.5795                 1.1869                 1.9380
 Frc consts  --      0.6779                 0.4954                 0.9269
 IR Inten    --      2.7831                17.5395                10.0393

                     13                     14                     15
                      A                      A                      A
 Frequencies --   1051.3308              1066.9155              1079.2758
 Red. masses --      1.4334                 1.4047                 4.2826
 Frc consts  --      0.9335                 0.9421                 2.9391
 IR Inten    --     32.4620                 8.1800                24.2006

                     16                     17                     18
                      A                      A                      A
 Frequencies --   1143.7414              1164.0504              1258.2817
 Red. masses --      3.6463                 1.5646                 1.2312
 Frc consts  --      2.8103                 1.2491                 1.1485
 IR Inten    --    106.5846                 8.9905                13.9351

                     19                     20                     21
                      A                      A                      A
 Frequencies --   1365.2859              1416.3045              1418.5150
 Red. masses --      1.2687                 1.1138                 1.2456
 Frc consts  --      1.3934                 1.3163                 1.4767
 IR Inten    --      9.4021                51.9881                34.9328

                     22                     23                     24
                      A                      A                      A
 Frequencies --   1449.8633              1475.5423              1493.3667
 Red. masses --      1.1836                 1.0531                 1.0763
 Frc consts  --      1.4659                 1.3508                 1.4142
 IR Inten    --      7.3464                 6.6867                10.3383

                     25                     26                     27
                      A                      A                      A
 Frequencies --   2974.6920              3092.4710              3102.5571
 Red. masses --      1.0715                 1.0765                 1.0652
 Frc consts  --      5.5866                 6.0654                 6.0412
 IR Inten    --     33.8039                 2.5501                 7.9710

                     28                     29                     30
                      A                      A                      A
 Frequencies --   3186.5771              3808.1388              3884.3873
 Red. masses --      1.1110                 1.0684                 1.0664
 Frc consts  --      6.6466                 9.1284                 9.4797
 IR Inten    --     10.9788                62.5234                38.2797

 - Thermochemistry -
 -------------------
 Temperature   298.150 Kelvin.  Pressure   1.00000 Atm.
 Atom     1 has atomic number  8 and mass  15.99491

 Molecular mass:    79.03952 amu.
 Principal axes and moments of inertia in atomic units:
                           1         2         3
     Eigenvalues --   237.15346 760.06122 821.98910
           X            0.99992  -0.00770   0.00972
           Y            0.00775   0.99996  -0.00484
           Z           -0.00968   0.00491   0.99994
 This molecule is an asymmetric top.
 Rotational symmetry number  1.
 Rotational temperatures (Kelvin)      0.36522     0.11396     0.10537
 Rotational constants (GHZ):           7.61001     2.37447     2.19558
    1 imaginary frequencies ignored.
 Zero-point vibrational energy     238746.3 (Joules/Mol)
                                   57.06174 (Kcal/Mol)
 Warning -- explicit consideration of   9 degrees of freedom as
           vibrations may cause significant error
 Vibrational temperatures:     49.50   128.45   182.45   329.73   412.42
          (Kelvin)            588.97   648.42   788.51   815.69  1211.03
                             1296.27  1512.63  1535.05  1552.84  1645.59
                             1674.81  1810.39  1964.34  2037.75  2040.93
                             2086.03  2122.98  2148.62  4279.92  4449.38
                             4463.89  4584.77  5479.06  5588.77

 Zero-point correction=                           0.090934 (Hartree/Particle)
 Thermal correction to Energy=                    0.098260
 Thermal correction to Enthalpy=                  0.099205
 Thermal correction to Gibbs Free Energy=         0.058327
 Sum of electronic and zero-point Energies=           -305.803449
 Sum of electronic and thermal Energies=              -305.796122
 Sum of electronic and thermal Enthalpies=            -305.795178
 Sum of electronic and thermal Free Energies=         -305.836056

                     E (Thermal)             CV                S
                      KCal/Mol        Cal/Mol-Kelvin    Cal/Mol-Kelvin
 Total                   61.659             23.604             86.035
 Electronic               0.000              0.000              1.377
 Translational            0.889              2.981             39.017
 Rotational               0.889              2.981             26.496
 Vibrational             59.882             17.642             19.144
 Vibration     1          0.594              1.983              5.558
 Vibration     2          0.602              1.957              3.676
 Vibration     3          0.611              1.926              2.994
 Vibration     4          0.652              1.796              1.885
 Vibration     5          0.684              1.698              1.494
 Vibration     6          0.774              1.450              0.929
 Vibration     7          0.809              1.359              0.794
 Vibration     8          0.903              1.144              0.548
 Vibration     9          0.923              1.103              0.510

                           ! Non-Optimized Parameters !
 Normal termination of Gaussian 16 at Sat Jun 22 12:52:33 2019.
