 Gaussian 16, Revision A.03,
 Gaussian 16:  EM64L-G16RevA.03 25-Dec-2016

 ----------------------------------------------------------------------
 #p m062x/cc-pVTZ opt=(ts,calcfc,noeigentest,maxcycles=900) freq scf=(m
 axcycle=900) IOP(7/33=1,2/16=3)
 ----------------------------------------------------------------------

 ------------------------------
 Gaussian input prepared by ASE
 ------------------------------
 Symbolic Z-matrix:
 Charge =  0 Multiplicity = 2

 SCF Done:  E(UM062X) =  -305.890078833     A.U. after   18 cycles
 SCF Done:  E(UM062X) =  -305.893096614     A.U. after   19 cycles
 SCF Done:  E(UM062X) =  -305.893591319     A.U. after   18 cycles
 SCF Done:  E(UM062X) =  -305.893658395     A.U. after   14 cycles
 SCF Done:  E(UM062X) =  -305.893663382     A.U. after   14 cycles
 SCF Done:  E(UM062X) =  -305.893664485     A.U. after   12 cycles
 SCF Done:  E(UM062X) =  -305.893667108     A.U. after   12 cycles
 SCF Done:  E(UM062X) =  -305.893667378     A.U. after   12 cycles
 SCF Done:  E(UM062X) =  -305.893667577     A.U. after   11 cycles
 SCF Done:  E(UM062X) =  -305.893667606     A.U. after   10 cycles
 SCF Done:  E(UM062X) =  -305.893667623     A.U. after   10 cycles
 Optimization completed.
    -- Stationary point found.
 Normal termination of Gaussian 16 at Sat Jun 22 13:28:08 2019.

 ----------------------------------------------------------------------
 #P Geom=AllCheck Guess=TCheck SCRF=Check Test GenChk UM062X/CC-pVTZ Fr
 eq
 ----------------------------------------------------------------------

 Structure from the checkpoint file:  "/scratch/harms.n/gauss_scrdir/Gau-22219.chk"
 ------------------------------
 Gaussian input prepared by ASE
 ------------------------------
 Charge =  0 Multiplicity = 2

                         Standard orientation:
 ---------------------------------------------------------------------
 Center     Atomic      Atomic             Coordinates (Angstroms)
 Number     Number       Type             X           Y           Z
 ---------------------------------------------------------------------
      1          8           0       -2.097014   -0.801344    0.023363
      2          8           0        2.459364    0.091169   -0.313554
      3          8           0        1.450933   -0.730129    0.172978
      4          6           0       -1.514346    0.388274   -0.462004
      5          6           0       -0.422988    0.913587    0.420573
      6          1           0       -1.115211    0.150766   -1.448128
      7          1           0       -2.275802    1.169423   -0.604559
      8          1           0        0.556230   -0.008460    0.351017
      9          1           0       -0.660454    0.968068    1.481342
     10          1           0        0.101652    1.789921    0.047589
     11          1           0       -2.479053   -0.630379    0.887430
     12          1           0        2.990385    0.271928    0.471603
 ---------------------------------------------------------------------

 SCF Done:  E(UM062X) =  -305.893667623     A.U. after    1 cycles

 The electronic state is 2-A.
 Alpha  occ. eigenvalues --  -19.68912 -19.68821 -19.62532 -10.59555 -10.55954
 Alpha  occ. eigenvalues --   -1.27094  -1.15298  -0.99210  -0.86278  -0.72616
 Alpha  occ. eigenvalues --   -0.62776  -0.59775  -0.57324  -0.54396  -0.52978
 Alpha  occ. eigenvalues --   -0.51883  -0.46322  -0.42422  -0.40158  -0.37731
 Alpha  occ. eigenvalues --   -0.36461  -0.30192
 Alpha virt. eigenvalues --    0.05885   0.06444   0.10004   0.11320   0.13317
 Alpha virt. eigenvalues --    0.14188   0.14791   0.19800   0.22963   0.26044
 Alpha virt. eigenvalues --    0.28942   0.30379   0.35181   0.36673   0.38901

  Beta  occ. eigenvalues --  -19.68758 -19.67876 -19.62530 -10.59583 -10.55425
  Beta  occ. eigenvalues --   -1.25423  -1.15257  -0.96782  -0.84824  -0.71381
  Beta  occ. eigenvalues --   -0.61173  -0.58600  -0.55147  -0.53416  -0.51631
  Beta  occ. eigenvalues --   -0.50084  -0.45703  -0.41511  -0.37584  -0.36129
  Beta  occ. eigenvalues --   -0.34992
  Beta virt. eigenvalues --   -0.08428   0.05817   0.06479   0.09965   0.11368
  Beta virt. eigenvalues --    0.13339   0.14466   0.15374   0.19798   0.23271
  Beta virt. eigenvalues --    0.26638   0.29294   0.30699   0.35264   0.37514

 Mulliken charges and spin densities:
               1          2
     1  O   -0.374905   0.002101
     2  O   -0.245116   0.048905
     3  O   -0.206095   0.390799
     4  C   -0.027953  -0.034107
     5  C   -0.372698   0.635819
     6  H    0.124290   0.011132
     7  H    0.096240   0.037515
     8  H    0.237983  -0.029906
     9  H    0.124604  -0.028465
    10  H    0.136792  -0.031540
    11  H    0.240978   0.000113
    12  H    0.265880  -0.002365
 Sum of Mulliken charges =  -0.00000   1.00000

 Dipole moment (field-independent basis, Debye):
    X=             -0.4428    Y=              2.8423    Z=              2.1371  Tot=              3.5836
 Quadrupole moment (field-independent basis, Debye-Ang):
   XX=            -27.0079   YY=            -33.2675   ZZ=            -28.9542
   XY=             -0.2194   XZ=              0.8527   YZ=             -0.3641

  Exact polarizability:  71.957  -7.619  42.952  -2.383   0.389  38.140
 Approx polarizability:  66.833  -5.830  50.889  -4.169  -0.033  45.247

 ******    1 imaginary frequencies (negative Signs) ******

                      1                      2                      3
                      A                      A                      A
 Frequencies --  -1874.7839                10.6493                64.2219
 Red. masses --      1.1030                 5.0080                 4.2877
 Frc consts  --      2.2843                 0.0003                 0.0104
 IR Inten    --   1836.4886                 4.5260                 1.1277

                      4                      5                      6
                      A                      A                      A
 Frequencies --    120.4831               175.3032               268.0739
 Red. masses --      2.3533                 3.2715                 1.1496
 Frc consts  --      0.0201                 0.0592                 0.0487
 IR Inten    --      1.8021                 1.9214               134.2235

                      7                      8                      9
                      A                      A                      A
 Frequencies --    384.9355               436.9990               544.9910
 Red. masses --      1.2789                 1.5962                 2.2121
 Frc consts  --      0.1117                 0.1796                 0.3871
 IR Inten    --     66.1488                41.0077                 2.2995

                     10                     11                     12
                      A                      A                      A
 Frequencies --    627.8153               822.8667               900.7605
 Red. masses --      2.1736                 1.1420                 1.9111
 Frc consts  --      0.5048                 0.4556                 0.9136
 IR Inten    --      0.3592                19.0203                13.7208

                     13                     14                     15
                      A                      A                      A
 Frequencies --   1054.4789              1075.7792              1081.8284
 Red. masses --      1.3644                 3.6516                 1.6227
 Frc consts  --      0.8938                 2.4899                 1.1189
 IR Inten    --     39.9654                22.1767                13.0965

                     16                     17                     18
                      A                      A                      A
 Frequencies --   1140.4216              1166.2821              1262.3665
 Red. masses --      3.5576                 1.5218                 1.2305
 Frc consts  --      2.7261                 1.2196                 1.1553
 IR Inten    --     97.0252                14.8924                14.3112

                     19                     20                     21
                      A                      A                      A
 Frequencies --   1367.0473              1413.7778              1418.4589
 Red. masses --      1.2654                 1.1267                 1.2126
 Frc consts  --      1.3933                 1.3269                 1.4374
 IR Inten    --     10.0164                16.7416                76.5204

                     22                     23                     24
                      A                      A                      A
 Frequencies --   1444.6881              1452.9498              1497.3045
 Red. masses --      1.0491                 1.2111                 1.0777
 Frc consts  --      1.2901                 1.5063                 1.4235
 IR Inten    --      0.4416                 9.9327                 4.4549

                     25                     26                     27
                      A                      A                      A
 Frequencies --   2979.4230              3097.5091              3109.1112
 Red. masses --      1.0717                 1.0599                 1.0826
 Frc consts  --      5.6050                 5.9918                 6.1655
 IR Inten    --     33.6441                 2.9002                13.0631

                     28                     29                     30
                      A                      A                      A
 Frequencies --   3188.5874              3814.7752              3883.4388
 Red. masses --      1.1111                 1.0684                 1.0664
 Frc consts  --      6.6555                 9.1604                 9.4753
 IR Inten    --      9.1506                68.2358                39.1756

 - Thermochemistry -
 -------------------
 Temperature   298.150 Kelvin.  Pressure   1.00000 Atm.
 Atom     1 has atomic number  8 and mass  15.99491

 Molecular mass:    79.03952 amu.
 Principal axes and moments of inertia in atomic units:
                           1         2         3
     Eigenvalues --   175.64496 947.496781033.47614
           X            0.99997  -0.00485   0.00565
           Y            0.00480   0.99995   0.00857
           Z           -0.00569  -0.00855   0.99995
 This molecule is an asymmetric top.
 Rotational symmetry number  1.
 Rotational temperatures (Kelvin)      0.49312     0.09141     0.08381
 Rotational constants (GHZ):          10.27494     1.90475     1.74628
    1 imaginary frequencies ignored.
 Zero-point vibrational energy     238088.7 (Joules/Mol)
                                   56.90457 (Kcal/Mol)
 Warning -- explicit consideration of   8 degrees of freedom as
           vibrations may cause significant error
 Vibrational temperatures:     15.32    92.40   173.35   252.22   385.70
          (Kelvin)            553.84   628.74   784.12   903.29  1183.92
                             1295.99  1517.16  1547.81  1556.51  1640.81
                             1678.02  1816.26  1966.88  2034.11  2040.85
                             2078.58  2090.47  2154.29  4286.73  4456.62
                             4473.32  4587.67  5488.61  5587.40

 Zero-point correction=                           0.090683 (Hartree/Particle)
 Thermal correction to Energy=                    0.098240
 Thermal correction to Enthalpy=                  0.099184
 Thermal correction to Gibbs Free Energy=         0.056466
 Sum of electronic and zero-point Energies=           -305.802984
 Sum of electronic and thermal Energies=              -305.795428
 Sum of electronic and thermal Enthalpies=            -305.794483
 Sum of electronic and thermal Free Energies=         -305.837202

                     E (Thermal)             CV                S
                      KCal/Mol        Cal/Mol-Kelvin    Cal/Mol-Kelvin
 Total                   61.647             23.720             89.909
 Electronic               0.000              0.000              1.377
 Translational            0.889              2.981             39.017
 Rotational               0.889              2.981             26.645
 Vibrational             59.869             17.759             22.870
 Vibration     1          0.593              1.987              7.886
 Vibration     2          0.597              1.971              4.323
 Vibration     3          0.609              1.932              3.093
 Vibration     4          0.627              1.873              2.378
 Vibration     5          0.673              1.732              1.609
 Vibration     6          0.754              1.502              1.020
 Vibration     7          0.797              1.390              0.836
 Vibration     8          0.900              1.151              0.555

                           ! Non-Optimized Parameters !
 Normal termination of Gaussian 16 at Sat Jun 22 13:35:31 2019.
