 Gaussian 16, Revision A.03,
 Gaussian 16:  EM64L-G16RevA.03 25-Dec-2016

 ----------------------------------------------------------------------
 #p m062x/cc-pVTZ Opt=(ModRedun,Loose,maxcycles=900) Int(Grid=SG1) scf=
 (maxcycle=900)
 ----------------------------------------------------------------------

 ------------------------------
 Gaussian input prepared by ASE
 ------------------------------
 Symbolic Z-matrix:
 Charge =  0 Multiplicity = 2

 SCF Done:  E(UM062X) =  -305.900263897     A.U. after   17 cycles
 SCF Done:  E(UM062X) =  -305.906084756     A.U. after   16 cycles
 SCF Done:  E(UM062X) =  -305.897442451     A.U. after   18 cycles
 SCF Done:  E(UM062X) =  -305.902316147     A.U. after   16 cycles
 SCF Done:  E(UM062X) =  -305.907670066     A.U. after   14 cycles
 SCF Done:  E(UM062X) =  -305.909388339     A.U. after   16 cycles
 SCF Done:  E(UM062X) =  -305.909457051     A.U. after   17 cycles
 SCF Done:  E(UM062X) =  -305.911046063     A.U. after   16 cycles
 SCF Done:  E(UM062X) =  -305.911329412     A.U. after   14 cycles
 SCF Done:  E(UM062X) =  -305.911487704     A.U. after   14 cycles
 SCF Done:  E(UM062X) =  -305.911593131     A.U. after   14 cycles
 SCF Done:  E(UM062X) =  -305.911642703     A.U. after   14 cycles
 SCF Done:  E(UM062X) =  -305.911670331     A.U. after   14 cycles
 Optimization completed.
    -- Stationary point found.

                         Standard orientation:
 ---------------------------------------------------------------------
 Center     Atomic      Atomic             Coordinates (Angstroms)
 Number     Number       Type             X           Y           Z
 ---------------------------------------------------------------------
      1          8           0        0.881369   -1.075910   -0.476876
      2          8           0       -1.586871   -0.547222    0.445019
      3          8           0       -1.535030    0.507114   -0.368876
      4          6           0        1.315295   -0.040481    0.413350
      5          6           0        0.744093    1.277441   -0.049041
      6          1           0        2.407843   -0.002080    0.423162
      7          1           0        0.977282   -0.264767    1.430739
      8          1           0        1.069435    2.087267    0.602894
      9          1           0        1.046464    1.486147   -1.074606
     10          1           0        1.430602   -1.851586   -0.342279
     11          1           0       -0.951790   -1.165792    0.031419
     12          1           0       -0.411918    1.217200   -0.051310
 ---------------------------------------------------------------------

 The electronic state is 2-A.
 Alpha  occ. eigenvalues --  -19.71028 -19.69761 -19.64578 -10.59678 -10.52564
 Alpha  occ. eigenvalues --   -1.31116  -1.16622  -0.98177  -0.85788  -0.71359
 Alpha  occ. eigenvalues --   -0.64959  -0.60786  -0.59599  -0.55482  -0.53986
 Alpha  occ. eigenvalues --   -0.48999  -0.45372  -0.44437  -0.41751  -0.38159
 Alpha  occ. eigenvalues --   -0.36763  -0.32273
 Alpha virt. eigenvalues --    0.04657   0.09119   0.10910   0.12241   0.13849
 Alpha virt. eigenvalues --    0.15476   0.18737   0.20088   0.21686   0.26030
 Alpha virt. eigenvalues --    0.28631   0.30020   0.36337   0.37402   0.37794

  Beta  occ. eigenvalues --  -19.70486 -19.68340 -19.64577 -10.59687 -10.52337
  Beta  occ. eigenvalues --   -1.28217  -1.16593  -0.94125  -0.85199  -0.70530
  Beta  occ. eigenvalues --   -0.63563  -0.60275  -0.55919  -0.54100  -0.49665
  Beta  occ. eigenvalues --   -0.48523  -0.44587  -0.43191  -0.39435  -0.36391
  Beta  occ. eigenvalues --   -0.34590
  Beta virt. eigenvalues --   -0.06345   0.04686   0.09126   0.11078   0.12285
  Beta virt. eigenvalues --    0.14052   0.15727   0.19351   0.20181   0.22319
  Beta virt. eigenvalues --    0.26588   0.28814   0.30353   0.36622   0.37564

 Mulliken charges and spin densities:
               1          2
     1  O   -0.423444   0.000282
     2  O   -0.175944   0.190470
     3  O   -0.133549   0.640107
     4  C   -0.096293  -0.007697
     5  C   -0.362776   0.194547
     6  H    0.111788   0.012653
     7  H    0.125329   0.002203
     8  H    0.101932  -0.004782
     9  H    0.125200  -0.006834
    10  H    0.267637   0.000039
    11  H    0.279386  -0.007781
    12  H    0.180736  -0.013207
 Sum of Mulliken charges =  -0.00000   1.00000

 Dipole moment (field-independent basis, Debye):
    X=              2.9862    Y=             -1.6293    Z=              0.6992  Tot=              3.4729
 Quadrupole moment (field-independent basis, Debye-Ang):
   XX=            -31.7193   YY=            -26.5099   ZZ=            -32.5688
   XY=             -1.0320   XZ=              1.2920   YZ=              0.0499

 Normal termination of Gaussian 16 at Sat Jun 22 12:45:56 2019.
