 Gaussian 16, Revision A.03,
 Gaussian 16:  EM64L-G16RevA.03 25-Dec-2016

 ----------------------------------------------------------------------
 #p m062x/cc-pVTZ Opt=(ModRedun,Loose,maxcycles=900) Int(Grid=SG1) scf=
 (maxcycle=900)
 ----------------------------------------------------------------------

 ------------------------------
 Gaussian input prepared by ASE
 ------------------------------
 Symbolic Z-matrix:
 Charge =  0 Multiplicity = 2

 SCF Done:  E(UM062X) =  -305.897262701     A.U. after   17 cycles
 SCF Done:  E(UM062X) =  -305.901305875     A.U. after   16 cycles
 SCF Done:  E(UM062X) =  -305.903493012     A.U. after   15 cycles
 SCF Done:  E(UM062X) =  -305.907308097     A.U. after   16 cycles
 SCF Done:  E(UM062X) =  -305.907468503     A.U. after   17 cycles
 SCF Done:  E(UM062X) =  -305.909416903     A.U. after   16 cycles
 SCF Done:  E(UM062X) =  -305.904921888     A.U. after   16 cycles
 SCF Done:  E(UM062X) =  -305.910035548     A.U. after   16 cycles
 SCF Done:  E(UM062X) =  -305.910742738     A.U. after   15 cycles
 SCF Done:  E(UM062X) =  -305.911011434     A.U. after   14 cycles
 SCF Done:  E(UM062X) =  -305.911152884     A.U. after   13 cycles
 SCF Done:  E(UM062X) =  -305.911732990     A.U. after   15 cycles
 SCF Done:  E(UM062X) =  -305.912022021     A.U. after   14 cycles
 SCF Done:  E(UM062X) =  -305.912316822     A.U. after   15 cycles
 SCF Done:  E(UM062X) =  -305.912733057     A.U. after   15 cycles
 SCF Done:  E(UM062X) =  -305.913167083     A.U. after   14 cycles
 SCF Done:  E(UM062X) =  -305.913530844     A.U. after   13 cycles
 SCF Done:  E(UM062X) =  -305.913634788     A.U. after   14 cycles
 SCF Done:  E(UM062X) =  -305.913700202     A.U. after   14 cycles
 SCF Done:  E(UM062X) =  -305.913694910     A.U. after   13 cycles
 Optimization completed.
    -- Stationary point found.

                         Standard orientation:
 ---------------------------------------------------------------------
 Center     Atomic      Atomic             Coordinates (Angstroms)
 Number     Number       Type             X           Y           Z
 ---------------------------------------------------------------------
      1          8           0       -0.816296   -1.187542   -0.402138
      2          8           0        1.612812   -0.440785    0.475801
      3          8           0        1.462348    0.539683   -0.412021
      4          6           0       -1.305066   -0.131032    0.432460
      5          6           0       -0.832399    1.229696   -0.027165
      6          1           0       -0.923163   -0.348485    1.429885
      7          1           0       -2.396451   -0.179209    0.475109
      8          1           0       -1.195519    1.455707   -1.031366
      9          1           0       -1.165206    2.012611    0.654994
     10          1           0       -0.892486   -0.907292   -1.318898
     11          1           0        1.002636   -1.132662    0.141722
     12          1           0        0.324062    1.216497   -0.076347
 ---------------------------------------------------------------------

 The electronic state is 2-A.
 Alpha  occ. eigenvalues --  -19.71664 -19.70465 -19.64408 -10.59630 -10.53348
 Alpha  occ. eigenvalues --   -1.31841  -1.16507  -0.98775  -0.85783  -0.72961
 Alpha  occ. eigenvalues --   -0.65648  -0.60607  -0.57240  -0.56192  -0.54325
 Alpha  occ. eigenvalues --   -0.52346  -0.45368  -0.44591  -0.41780  -0.38285
 Alpha  occ. eigenvalues --   -0.37532  -0.32843
 Alpha virt. eigenvalues --    0.05579   0.09205   0.09479   0.12299   0.14212
 Alpha virt. eigenvalues --    0.15341   0.17858   0.19452   0.22469   0.25999
 Alpha virt. eigenvalues --    0.28155   0.29663   0.35599   0.36575   0.38181

  Beta  occ. eigenvalues --  -19.71101 -19.69052 -19.64408 -10.59639 -10.53125
  Beta  occ. eigenvalues --   -1.28917  -1.16480  -0.94717  -0.85172  -0.72318
  Beta  occ. eigenvalues --   -0.63805  -0.58223  -0.54981  -0.54332  -0.53542
  Beta  occ. eigenvalues --   -0.49408  -0.44854  -0.42368  -0.40165  -0.36431
  Beta  occ. eigenvalues --   -0.35443
  Beta virt. eigenvalues --   -0.07017   0.05646   0.09204   0.09740   0.12278
  Beta virt. eigenvalues --    0.14389   0.15592   0.18503   0.19618   0.23139
  Beta virt. eigenvalues --    0.26400   0.28457   0.29951   0.35658   0.36682

 Mulliken charges and spin densities:
               1          2
     1  O   -0.432071   0.000229
     2  O   -0.165971   0.200076
     3  O   -0.143706   0.633696
     4  C   -0.084348  -0.007619
     5  C   -0.384787   0.191094
     6  H    0.135255   0.001665
     7  H    0.118837   0.012798
     8  H    0.109342  -0.006106
     9  H    0.110124  -0.004724
    10  H    0.271186  -0.000152
    11  H    0.281272  -0.008227
    12  H    0.184867  -0.012730
 Sum of Mulliken charges =  -0.00000   1.00000

 Dipole moment (field-independent basis, Debye):
    X=             -2.1328    Y=             -0.0692    Z=             -0.6199  Tot=              2.2221
 Quadrupole moment (field-independent basis, Debye-Ang):
   XX=            -33.5058   YY=            -32.1545   ZZ=            -28.7843
   XY=             -2.6443   XZ=              0.1294   YZ=              0.7727

 Normal termination of Gaussian 16 at Sat Jun 22 12:44:15 2019.
