 Gaussian 16, Revision A.03,
 Gaussian 16:  EM64L-G16RevA.03 25-Dec-2016

 ----------------------------------------------------------------------
 #p m062x/cc-pVTZ Opt=(ts,calcfc,noeigentest,ModRedun,maxcycles=900) sc
 f=(maxcycle=900)
 ----------------------------------------------------------------------

 ------------------------------
 Gaussian input prepared by ASE
 ------------------------------
 Symbolic Z-matrix:
 Charge =  0 Multiplicity = 2

 SCF Done:  E(UM062X) =  -305.890480807     A.U. after   18 cycles

  Exact polarizability:   0.000   0.000   0.000   0.000   0.000   0.000
 Approx polarizability:  61.296  -7.716  48.765  -0.888  -1.839  50.113

 SCF Done:  E(UM062X) =  -305.892227613     A.U. after   15 cycles
 SCF Done:  E(UM062X) =  -305.892333542     A.U. after   13 cycles
 SCF Done:  E(UM062X) =  -305.892356035     A.U. after   12 cycles
 SCF Done:  E(UM062X) =  -305.892356551     A.U. after   10 cycles
 Optimization completed.
    -- Stationary point found.

                         Standard orientation:
 ---------------------------------------------------------------------
 Center     Atomic      Atomic             Coordinates (Angstroms)
 Number     Number       Type             X           Y           Z
 ---------------------------------------------------------------------
      1          8           0       -1.992782   -0.649254   -0.458284
      2          8           0        1.868865   -0.593808    0.407668
      3          8           0        1.663025    0.095211   -0.776132
      4          6           0       -1.212846   -0.093086    0.577824
      5          6           0       -0.395101    1.079265    0.134834
      6          1           0       -1.844413    0.211328    1.426090
      7          1           0       -0.560730   -0.889625    0.936717
      8          1           0        0.616307    0.579146   -0.590456
      9          1           0       -0.898642    1.798472   -0.501314
     10          1           0        0.221278    1.535008    0.902595
     11          1           0       -2.593173    0.024634   -0.786962
     12          1           0        2.394190    0.006773    0.951360
 ---------------------------------------------------------------------

 The electronic state is 2-A.
 Alpha  occ. eigenvalues --  -19.69352 -19.69058 -19.62408 -10.59329 -10.55927
 Alpha  occ. eigenvalues --   -1.27649  -1.15145  -0.99470  -0.86428  -0.72632
 Alpha  occ. eigenvalues --   -0.63103  -0.60284  -0.57726  -0.54289  -0.52579
 Alpha  occ. eigenvalues --   -0.52151  -0.46307  -0.42067  -0.40803  -0.37970
 Alpha  occ. eigenvalues --   -0.36575  -0.29958
 Alpha virt. eigenvalues --    0.05032   0.06537   0.10385   0.11161   0.13169
 Alpha virt. eigenvalues --    0.15223   0.15986   0.19302   0.23034   0.24571
 Alpha virt. eigenvalues --    0.27663   0.32172   0.35837   0.38127   0.39585

  Beta  occ. eigenvalues --  -19.69200 -19.68103 -19.62410 -10.59352 -10.55404
  Beta  occ. eigenvalues --   -1.25975  -1.15114  -0.97059  -0.84938  -0.71402
  Beta  occ. eigenvalues --   -0.61465  -0.58712  -0.56018  -0.53374  -0.51407
  Beta  occ. eigenvalues --   -0.50105  -0.45677  -0.41166  -0.37704  -0.36345
  Beta  occ. eigenvalues --   -0.35483
  Beta virt. eigenvalues --   -0.08170   0.05197   0.06551   0.10435   0.11032
  Beta virt. eigenvalues --    0.13556   0.15494   0.16274   0.19401   0.23442
  Beta virt. eigenvalues --    0.25198   0.27927   0.32339   0.35993   0.38279

 Mulliken charges and spin densities:
               1          2
     1  O   -0.374258   0.001136
     2  O   -0.241244   0.045712
     3  O   -0.205573   0.393437
     4  C   -0.026449  -0.035165
     5  C   -0.401052   0.631137
     6  H    0.091323   0.040889
     7  H    0.135957   0.013070
     8  H    0.244676  -0.029703
     9  H    0.132249  -0.028866
    10  H    0.138536  -0.029923
    11  H    0.239535   0.000356
    12  H    0.266302  -0.002079
 Sum of Mulliken charges =  -0.00000   1.00000

 Dipole moment (field-independent basis, Debye):
    X=             -0.7337    Y=              2.9695    Z=              2.0743  Tot=              3.6958
 Quadrupole moment (field-independent basis, Debye-Ang):
   XX=            -27.8463   YY=            -32.7498   ZZ=            -30.0144
   XY=             -1.8075   XZ=              4.6628   YZ=             -0.8898

 Normal termination of Gaussian 16 at Thu May 30 07:52:39 2019.
