 Gaussian 16, Revision A.03,
 Gaussian 16:  EM64L-G16RevA.03 25-Dec-2016

 ----------------------------------------------------------------------
 #p m062x/cc-pVTZ Opt=(ModRedun,Loose,maxcycles=900) Int(Grid=SG1) scf=
 (maxcycle=900)
 ----------------------------------------------------------------------

 ------------------------------
 Gaussian input prepared by ASE
 ------------------------------
 Symbolic Z-matrix:
 Charge =  0 Multiplicity = 2

 SCF Done:  E(UM062X) =  -305.880180472     A.U. after   16 cycles
 SCF Done:  E(UM062X) =  -305.886917941     A.U. after   14 cycles
 SCF Done:  E(UM062X) =  -305.888931605     A.U. after   15 cycles
 SCF Done:  E(UM062X) =  -305.889699664     A.U. after   16 cycles
 SCF Done:  E(UM062X) =  -305.890016006     A.U. after   13 cycles
 SCF Done:  E(UM062X) =  -305.889724460     A.U. after   16 cycles
 SCF Done:  E(UM062X) =  -305.890077250     A.U. after   14 cycles
 SCF Done:  E(UM062X) =  -305.890205411     A.U. after   15 cycles
 SCF Done:  E(UM062X) =  -305.890257096     A.U. after   13 cycles
 SCF Done:  E(UM062X) =  -305.890304749     A.U. after   14 cycles
 SCF Done:  E(UM062X) =  -305.890296846     A.U. after   12 cycles
 SCF Done:  E(UM062X) =  -305.890301819     A.U. after   12 cycles
 SCF Done:  E(UM062X) =  -305.890305748     A.U. after   11 cycles
 Optimization completed.
    -- Stationary point found.

                         Standard orientation:
 ---------------------------------------------------------------------
 Center     Atomic      Atomic             Coordinates (Angstroms)
 Number     Number       Type             X           Y           Z
 ---------------------------------------------------------------------
      1          8           0       -1.998102   -0.609756   -0.495505
      2          8           0        1.866947   -0.638647    0.356455
      3          8           0        1.658636    0.174837   -0.749406
      4          6           0       -1.210659   -0.130600    0.572898
      5          6           0       -0.378405    1.059227    0.202811
      6          1           0       -1.837068    0.119398    1.442503
      7          1           0       -0.562665   -0.953986    0.874021
      8          1           0        0.562956    0.552238   -0.651597
      9          1           0       -0.887543    1.828023   -0.376123
     10          1           0        0.235644    1.462183    1.001993
     11          1           0       -2.595092    0.088869   -0.775057
     12          1           0        2.398302   -0.079959    0.937656
 ---------------------------------------------------------------------

 The electronic state is 2-A.
 Alpha  occ. eigenvalues --  -19.69324 -19.68905 -19.62440 -10.59361 -10.55991
 Alpha  occ. eigenvalues --   -1.27426  -1.15188  -0.99563  -0.86237  -0.72424
 Alpha  occ. eigenvalues --   -0.62816  -0.60300  -0.57680  -0.54456  -0.52410
 Alpha  occ. eigenvalues --   -0.52114  -0.46170  -0.41874  -0.40975  -0.37837
 Alpha  occ. eigenvalues --   -0.36606  -0.29547
 Alpha virt. eigenvalues --    0.05113   0.06525   0.10330   0.11112   0.13010
 Alpha virt. eigenvalues --    0.15086   0.15976   0.19321   0.22347   0.23600
 Alpha virt. eigenvalues --    0.27761   0.32254   0.35777   0.38247   0.40455

  Beta  occ. eigenvalues --  -19.69183 -19.67958 -19.62443 -10.59385 -10.55448
  Beta  occ. eigenvalues --   -1.25796  -1.15160  -0.97185  -0.84740  -0.71175
  Beta  occ. eigenvalues --   -0.61230  -0.58755  -0.56015  -0.53667  -0.51438
  Beta  occ. eigenvalues --   -0.49783  -0.45516  -0.41089  -0.38273  -0.36198
  Beta  occ. eigenvalues --   -0.35214
  Beta virt. eigenvalues --   -0.07643   0.05246   0.06551   0.10397   0.10983
  Beta virt. eigenvalues --    0.13411   0.15357   0.16216   0.19406   0.23017
  Beta virt. eigenvalues --    0.23949   0.28030   0.32420   0.35943   0.38323

 Mulliken charges and spin densities:
               1          2
     1  O   -0.375292   0.000852
     2  O   -0.239618   0.040413
     3  O   -0.215391   0.382382
     4  C   -0.029668  -0.035842
     5  C   -0.389728   0.646061
     6  H    0.091892   0.041586
     7  H    0.134820   0.013309
     8  H    0.248044  -0.027115
     9  H    0.128215  -0.027584
    10  H    0.138937  -0.032507
    11  H    0.239557   0.000308
    12  H    0.268232  -0.001863
 Sum of Mulliken charges =  -0.00000   1.00000

 Dipole moment (field-independent basis, Debye):
    X=             -0.7555    Y=              2.7293    Z=              2.1873  Tot=              3.5782
 Quadrupole moment (field-independent basis, Debye-Ang):
   XX=            -28.0233   YY=            -32.7501   ZZ=            -30.0302
   XY=             -2.2786   XZ=              4.5179   YZ=             -1.0713

 Normal termination of Gaussian 16 at Thu May 30 06:36:39 2019.
