 Gaussian 16, Revision A.03,
 Gaussian 16:  EM64L-G16RevA.03 25-Dec-2016

 ----------------------------------------------------------------------
 #p m062x/cc-pVTZ Opt=(ModRedun,Loose,maxcycles=900) Int(Grid=SG1) scf=
 (maxcycle=900)
 ----------------------------------------------------------------------

 ------------------------------
 Gaussian input prepared by ASE
 ------------------------------
 Symbolic Z-matrix:
 Charge =  0 Multiplicity = 2

 SCF Done:  E(UM062X) =  -305.875895712     A.U. after   17 cycles
 SCF Done:  E(UM062X) =  -305.882937764     A.U. after   15 cycles
 SCF Done:  E(UM062X) =  -305.884966621     A.U. after   17 cycles
 SCF Done:  E(UM062X) =  -305.886181714     A.U. after   17 cycles
 SCF Done:  E(UM062X) =  -305.887602002     A.U. after   14 cycles
 SCF Done:  E(UM062X) =  -305.888328016     A.U. after   16 cycles
 SCF Done:  E(UM062X) =  -305.886412751     A.U. after   18 cycles
 SCF Done:  E(UM062X) =  -305.888872556     A.U. after   14 cycles
 SCF Done:  E(UM062X) =  -305.889268976     A.U. after   13 cycles
 SCF Done:  E(UM062X) =  -305.889389597     A.U. after   14 cycles
 SCF Done:  E(UM062X) =  -305.891173013     A.U. after   13 cycles
 SCF Done:  E(UM062X) =  -305.891210888     A.U. after   15 cycles
 SCF Done:  E(UM062X) =  -305.891186165     A.U. after   11 cycles
 SCF Done:  E(UM062X) =  -305.890842194     A.U. after   14 cycles
 SCF Done:  E(UM062X) =  -305.890864102     A.U. after   12 cycles
 SCF Done:  E(UM062X) =  -305.891270703     A.U. after    5 cycles
 SCF Done:  E(UM062X) =  -305.891167623     A.U. after   14 cycles
 SCF Done:  E(UM062X) =  -305.891158416     A.U. after   13 cycles
 SCF Done:  E(UM062X) =  -305.891166986     A.U. after   13 cycles
 SCF Done:  E(UM062X) =  -305.891167745     A.U. after   11 cycles
 Optimization completed.
    -- Stationary point found.

                         Standard orientation:
 ---------------------------------------------------------------------
 Center     Atomic      Atomic             Coordinates (Angstroms)
 Number     Number       Type             X           Y           Z
 ---------------------------------------------------------------------
      1          8           0        2.399596   -0.473449    0.127178
      2          8           0       -2.152150   -0.552194    0.426372
      3          8           0       -1.758289    0.352069   -0.550072
      4          6           0        1.093561   -0.218381   -0.368247
      5          6           0        0.425176    0.899191    0.375715
      6          1           0        1.108731   -0.012243   -1.441744
      7          1           0        0.544301   -1.149169   -0.223488
      8          1           0       -0.868885    0.930900   -0.069068
      9          1           0        0.794512    1.899417    0.154121
     10          1           0        0.265654    0.720616    1.436372
     11          1           0        2.941796    0.305644   -0.020017
     12          1           0       -1.811791   -1.391431    0.091194
 ---------------------------------------------------------------------

 The electronic state is 2-A.
 Alpha  occ. eigenvalues --  -19.69783 -19.69702 -19.63081 -10.59750 -10.56159
 Alpha  occ. eigenvalues --   -1.28013  -1.15635  -1.00129  -0.86319  -0.72647
 Alpha  occ. eigenvalues --   -0.63225  -0.60139  -0.59417  -0.54681  -0.52486
 Alpha  occ. eigenvalues --   -0.51253  -0.47656  -0.42060  -0.40935  -0.38527
 Alpha  occ. eigenvalues --   -0.36959  -0.30788
 Alpha virt. eigenvalues --    0.05178   0.06136   0.10112   0.10914   0.12640
 Alpha virt. eigenvalues --    0.14990   0.16808   0.19603   0.22681   0.24143
 Alpha virt. eigenvalues --    0.28414   0.32123   0.32931   0.35752   0.38363

  Beta  occ. eigenvalues --  -19.69555 -19.68819 -19.62975 -10.59784 -10.55632
  Beta  occ. eigenvalues --   -1.26323  -1.15265  -0.97712  -0.84830  -0.71527
  Beta  occ. eigenvalues --   -0.61688  -0.59436  -0.56488  -0.53878  -0.50991
  Beta  occ. eigenvalues --   -0.49602  -0.46898  -0.41168  -0.38620  -0.37013
  Beta  occ. eigenvalues --   -0.35185
  Beta virt. eigenvalues --   -0.08676   0.05304   0.06042   0.10229   0.11082
  Beta virt. eigenvalues --    0.12963   0.15452   0.16924   0.20026   0.22881
  Beta virt. eigenvalues --    0.24733   0.28384   0.32428   0.33567   0.36225

 Mulliken charges and spin densities:
               1          2
     1  O   -0.375279   0.033251
     2  O   -0.233304   0.046329
     3  O   -0.214664   0.390621
     4  C   -0.026510  -0.036631
     5  C   -0.402573   0.656234
     6  H    0.105043   0.001270
     7  H    0.096484   0.003212
     8  H    0.241276  -0.026856
     9  H    0.131820  -0.031762
    10  H    0.166638  -0.033420
    11  H    0.242328   0.000493
    12  H    0.268740  -0.002742
 Sum of Mulliken charges =  -0.00000   1.00000

 Dipole moment (field-independent basis, Debye):
    X=              1.4917    Y=              0.3969    Z=             -0.5009  Tot=              1.6229
 Quadrupole moment (field-independent basis, Debye-Ang):
   XX=            -36.3236   YY=            -27.6245   ZZ=            -32.2581
   XY=              7.3935   XZ=             -1.4742   YZ=              0.6398

 Normal termination of Gaussian 16 at Sat Jun 22 13:14:07 2019.
