 Gaussian 16, Revision A.03,
 Gaussian 16:  EM64L-G16RevA.03 25-Dec-2016

 ----------------------------------------------------------------------
 #p m062x/cc-pVTZ opt=(ts,calcfc,noeigentest,maxcycles=900) freq scf=(m
 axcycle=900) IOP(7/33=1,2/16=3)
 ----------------------------------------------------------------------

 ------------------------------
 Gaussian input prepared by ASE
 ------------------------------
 Symbolic Z-matrix:
 Charge =  0 Multiplicity = 2

 SCF Done:  E(UM062X) =  -305.897974971     A.U. after   18 cycles
 SCF Done:  E(UM062X) =  -305.899889428     A.U. after   17 cycles
 SCF Done:  E(UM062X) =  -305.900113558     A.U. after   15 cycles
 SCF Done:  E(UM062X) =  -305.900236893     A.U. after   14 cycles
 SCF Done:  E(UM062X) =  -305.898528191     A.U. after   19 cycles
 SCF Done:  E(UM062X) =  -305.900296502     A.U. after   18 cycles
 SCF Done:  E(UM062X) =  -305.900029398     A.U. after   16 cycles
 SCF Done:  E(UM062X) =  -305.898574261     A.U. after   19 cycles
 SCF Done:  E(UM062X) =  -305.900682046     A.U. after   18 cycles
 SCF Done:  E(UM062X) =  -305.900790329     A.U. after   15 cycles
 SCF Done:  E(UM062X) =  -305.900872955     A.U. after   11 cycles
 SCF Done:  E(UM062X) =  -305.900873122     A.U. after   10 cycles
 SCF Done:  E(UM062X) =  -305.899455218     A.U. after   16 cycles
 SCF Done:  E(UM062X) =  -305.900148025     A.U. after   15 cycles
 SCF Done:  E(UM062X) =  -305.900193204     A.U. after   16 cycles
 SCF Done:  E(UM062X) =  -305.900570401     A.U. after   16 cycles
 SCF Done:  E(UM062X) =  -305.900751220     A.U. after   14 cycles
 SCF Done:  E(UM062X) =  -305.900870961     A.U. after   14 cycles
 SCF Done:  E(UM062X) =  -305.900873126     A.U. after   11 cycles
 Optimization completed.
    -- Stationary point found.
 Normal termination of Gaussian 16 at Sat Jun 22 13:56:19 2019.

 ----------------------------------------------------------------------
 #P Geom=AllCheck Guess=TCheck SCRF=Check Test GenChk UM062X/CC-pVTZ Fr
 eq
 ----------------------------------------------------------------------

 Structure from the checkpoint file:  "/scratch/harms.n/gauss_scrdir/Gau-46923.chk"
 ------------------------------
 Gaussian input prepared by ASE
 ------------------------------
 Charge =  0 Multiplicity = 2

                         Standard orientation:
 ---------------------------------------------------------------------
 Center     Atomic      Atomic             Coordinates (Angstroms)
 Number     Number       Type             X           Y           Z
 ---------------------------------------------------------------------
      1          8           0       -1.266282   -1.069080   -0.469047
      2          8           0        1.574563   -0.725644    0.230723
      3          8           0        1.644483    0.550630   -0.316917
      4          6           0       -1.350008   -0.017111    0.461311
      5          6           0       -0.752187    1.257087   -0.056742
      6          1           0       -2.415396    0.139766    0.660568
      7          1           0       -0.891037   -0.291417    1.418746
      8          1           0        0.541126    0.970830   -0.215770
      9          1           0       -0.753752    2.099759    0.629850
     10          1           0       -1.041023    1.510439   -1.073346
     11          1           0       -0.337937   -1.315373   -0.540110
     12          1           0        1.889073   -0.601100    1.134580
 ---------------------------------------------------------------------

 SCF Done:  E(UM062X) =  -305.900873126     A.U. after    1 cycles

 The electronic state is 2-A.
 Alpha  occ. eigenvalues --  -19.70857 -19.70096 -19.61498 -10.59473 -10.55994
 Alpha  occ. eigenvalues --   -1.28605  -1.14542  -1.00670  -0.86246  -0.72329
 Alpha  occ. eigenvalues --   -0.63818  -0.61401  -0.58303  -0.54131  -0.53215
 Alpha  occ. eigenvalues --   -0.50682  -0.47747  -0.43278  -0.40278  -0.39194
 Alpha  occ. eigenvalues --   -0.35703  -0.31026
 Alpha virt. eigenvalues --    0.04233   0.08528   0.11002   0.12133   0.13023
 Alpha virt. eigenvalues --    0.13579   0.15127   0.20575   0.22571   0.26156
 Alpha virt. eigenvalues --    0.28711   0.29514   0.35518   0.37197   0.38753

  Beta  occ. eigenvalues --  -19.70706 -19.69118 -19.61493 -10.59497 -10.55492
  Beta  occ. eigenvalues --   -1.26942  -1.14482  -0.98153  -0.84780  -0.70962
  Beta  occ. eigenvalues --   -0.62699  -0.59723  -0.56213  -0.52882  -0.51678
  Beta  occ. eigenvalues --   -0.49388  -0.46898  -0.41616  -0.37899  -0.37094
  Beta  occ. eigenvalues --   -0.35436
  Beta virt. eigenvalues --   -0.09173   0.04369   0.08464   0.10973   0.12366
  Beta virt. eigenvalues --    0.13064   0.13993   0.15354   0.20619   0.22841
  Beta virt. eigenvalues --    0.27084   0.28946   0.29595   0.35730   0.37623

 Mulliken charges and spin densities:
               1          2
     1  O   -0.396021   0.000880
     2  O   -0.261967   0.045171
     3  O   -0.200666   0.398761
     4  C   -0.068643  -0.027511
     5  C   -0.360997   0.598380
     6  H    0.131858   0.040779
     7  H    0.101589   0.009178
     8  H    0.229177  -0.013905
     9  H    0.126492  -0.028048
    10  H    0.150790  -0.023961
    11  H    0.268286   0.002478
    12  H    0.280102  -0.002201
 Sum of Mulliken charges =  -0.00000   1.00000

 Dipole moment (field-independent basis, Debye):
    X=              0.1405    Y=              1.1992    Z=              2.5508  Tot=              2.8221
 Quadrupole moment (field-independent basis, Debye-Ang):
   XX=            -33.3204   YY=            -31.6022   ZZ=            -29.0471
   XY=             -4.4541   XZ=              2.0339   YZ=             -1.2983

  Exact polarizability:  61.720  -8.472  45.993  -0.786  -1.675  37.686
 Approx polarizability:  64.219  -7.916  52.769  -1.232  -1.856  45.252

 ******    1 imaginary frequencies (negative Signs) ******

                      1                      2                      3
                      A                      A                      A
 Frequencies --  -1852.4612                60.2097               155.7021
 Red. masses --      1.0964                 5.6315                 2.8483
 Frc consts  --      2.2168                 0.0120                 0.0407
 IR Inten    --   1208.4940                 6.1129                 3.1941

                      4                      5                      6
                      A                      A                      A
 Frequencies --    168.1554               279.8277               377.6127
 Red. masses --      4.1484                 3.6083                 1.0837
 Frc consts  --      0.0691                 0.1665                 0.0910
 IR Inten    --      0.1850                 0.6475                85.1106

                      7                      8                      9
                      A                      A                      A
 Frequencies --    443.7641               484.3431               519.7345
 Red. masses --      1.7825                 1.1972                 1.3456
 Frc consts  --      0.2068                 0.1655                 0.2142
 IR Inten    --     10.9172                94.9626                34.4481

                     10                     11                     12
                      A                      A                      A
 Frequencies --    567.5452               841.2787               900.6342
 Red. masses --      3.4646                 1.1915                 1.9366
 Frc consts  --      0.6575                 0.4969                 0.9255
 IR Inten    --      7.8489                10.8814                 6.4899

                     13                     14                     15
                      A                      A                      A
 Frequencies --   1068.5068              1090.0627              1113.9773
 Red. masses --      7.1518                 1.6485                 1.4188
 Frc consts  --      4.8109                 1.1541                 1.0374
 IR Inten    --     39.9026                15.7987                68.8404

                     16                     17                     18
                      A                      A                      A
 Frequencies --   1138.6845              1166.5225              1249.3493
 Red. masses --      1.7765                 1.9588                 1.2017
 Frc consts  --      1.3572                 1.5705                 1.1051
 IR Inten    --     23.0418                12.2163                20.9885

                     19                     20                     21
                      A                      A                      A
 Frequencies --   1394.4877              1404.4232              1407.5977
 Red. masses --      1.2511                 1.1266                 1.1578
 Frc consts  --      1.4334                 1.3092                 1.3516
 IR Inten    --      3.9568                44.7978                47.1057

                     22                     23                     24
                      A                      A                      A
 Frequencies --   1445.4496              1464.8853              1487.4672
 Red. masses --      1.1876                 1.0869                 1.0803
 Frc consts  --      1.4620                 1.3742                 1.4083
 IR Inten    --     20.2938                 5.5531                 5.6120

                     25                     26                     27
                      A                      A                      A
 Frequencies --   3016.3300              3049.9765              3109.3001
 Red. masses --      1.0605                 1.0988                 1.0535
 Frc consts  --      5.6846                 6.0225                 6.0008
 IR Inten    --     40.7967                 9.4673                 6.2856

                     28                     29                     30
                      A                      A                      A
 Frequencies --   3199.8622              3816.6780              3849.1747
 Red. masses --      1.1124                 1.0684                 1.0655
 Frc consts  --      6.7106                 9.1696                 9.3014
 IR Inten    --      6.7878                70.2747                69.1971

 - Thermochemistry -
 -------------------
 Temperature   298.150 Kelvin.  Pressure   1.00000 Atm.
 Atom     1 has atomic number  8 and mass  15.99491

 Molecular mass:    79.03952 amu.
 Principal axes and moments of inertia in atomic units:
                           1         2         3
     Eigenvalues --   265.68489 584.82000 749.26678
           X            0.99925  -0.03876  -0.00019
           Y            0.03875   0.99912  -0.01581
           Z            0.00081   0.01580   0.99987
 This molecule is an asymmetric top.
 Rotational symmetry number  1.
 Rotational temperatures (Kelvin)      0.32600     0.14810     0.11560
 Rotational constants (GHZ):           6.79279     3.08598     2.40868
    1 imaginary frequencies ignored.
 Zero-point vibrational energy     240877.3 (Joules/Mol)
                                   57.57106 (Kcal/Mol)
 Warning -- explicit consideration of   9 degrees of freedom as
           vibrations may cause significant error
 Vibrational temperatures:     86.63   224.02   241.94   402.61   543.30
          (Kelvin)            638.48   696.86   747.78   816.57  1210.41
                             1295.81  1537.34  1568.36  1602.76  1638.31
                             1678.37  1797.54  2006.36  2020.65  2025.22
                             2079.68  2107.64  2140.13  4339.83  4388.24
                             4473.59  4603.89  5491.35  5538.10

 Zero-point correction=                           0.091745 (Hartree/Particle)
 Thermal correction to Energy=                    0.098601
 Thermal correction to Enthalpy=                  0.099545
 Thermal correction to Gibbs Free Energy=         0.060530
 Sum of electronic and zero-point Energies=           -305.809128
 Sum of electronic and thermal Energies=              -305.802272
 Sum of electronic and thermal Enthalpies=            -305.801328
 Sum of electronic and thermal Free Energies=         -305.840343

                     E (Thermal)             CV                S
                      KCal/Mol        Cal/Mol-Kelvin    Cal/Mol-Kelvin
 Total                   61.873             23.078             82.114
 Electronic               0.000              0.000              1.377
 Translational            0.889              2.981             39.017
 Rotational               0.889              2.981             26.257
 Vibrational             60.096             17.117             15.463
 Vibration     1          0.597              1.973              4.450
 Vibration     2          0.620              1.896              2.601
 Vibration     3          0.625              1.882              2.456
 Vibration     4          0.680              1.711              1.535
 Vibration     5          0.748              1.518              1.049
 Vibration     6          0.803              1.375              0.815
 Vibration     7          0.840              1.285              0.698
 Vibration     8          0.875              1.206              0.611
 Vibration     9          0.924              1.101              0.509

 Optimization completed.
    -- Stationary point found.
 Normal termination of Gaussian 16 at Sat Jun 22 14:05:09 2019.
