 Gaussian 16, Revision A.03,
 Gaussian 16:  EM64L-G16RevA.03 25-Dec-2016

 ----------------------------------------------------------------------
 #p m062x/cc-pVTZ opt=(ts,calcfc,noeigentest,maxcycles=900) freq scf=(m
 axcycle=900) IOP(7/33=1,2/16=3)
 ----------------------------------------------------------------------

 ------------------------------
 Gaussian input prepared by ASE
 ------------------------------
 Symbolic Z-matrix:
 Charge =  0 Multiplicity = 2

 SCF Done:  E(UM062X) =  -305.891163789     A.U. after   19 cycles
 SCF Done:  E(UM062X) =  -305.893810604     A.U. after   17 cycles
 SCF Done:  E(UM062X) =  -305.894212074     A.U. after   16 cycles
 SCF Done:  E(UM062X) =  -305.894308667     A.U. after   14 cycles
 SCF Done:  E(UM062X) =  -305.894368370     A.U. after   15 cycles
 SCF Done:  E(UM062X) =  -305.894395750     A.U. after   14 cycles
 SCF Done:  E(UM062X) =  -305.894397284     A.U. after   12 cycles
 SCF Done:  E(UM062X) =  -305.894398496     A.U. after   13 cycles
 SCF Done:  E(UM062X) =  -305.894399788     A.U. after   10 cycles
 SCF Done:  E(UM062X) =  -305.894401889     A.U. after   11 cycles
 SCF Done:  E(UM062X) =  -305.894402139     A.U. after   10 cycles
 SCF Done:  E(UM062X) =  -305.894402165     A.U. after   10 cycles
 Optimization completed.
    -- Stationary point found.
 Normal termination of Gaussian 16 at Sat Jun 22 13:38:26 2019.

 ----------------------------------------------------------------------
 #P Geom=AllCheck Guess=TCheck SCRF=Check Test GenChk UM062X/CC-pVTZ Fr
 eq
 ----------------------------------------------------------------------

 Structure from the checkpoint file:  "/scratch/harms.n/gauss_scrdir/Gau-7882.chk"
 ------------------------------
 Gaussian input prepared by ASE
 ------------------------------
 Charge =  0 Multiplicity = 2

                         Standard orientation:
 ---------------------------------------------------------------------
 Center     Atomic      Atomic             Coordinates (Angstroms)
 Number     Number       Type             X           Y           Z
 ---------------------------------------------------------------------
      1          8           0       -2.473535   -0.402906   -0.109009
      2          8           0        2.060301   -0.760063   -0.246627
      3          8           0        1.952747    0.549540    0.201525
      4          6           0       -1.082911   -0.356207    0.178398
      5          6           0       -0.492854    0.982712   -0.158997
      6          1           0       -0.892895   -0.602588    1.227952
      7          1           0       -0.627079   -1.130837   -0.435936
      8          1           0        0.839133    0.820591    0.022664
      9          1           0       -0.720294    1.794316    0.528777
     10          1           0       -0.561776    1.265887   -1.205164
     11          1           0       -2.915080    0.275018    0.408788
     12          1           0        2.016469   -1.273985    0.569407
 ---------------------------------------------------------------------

 SCF Done:  E(UM062X) =  -305.894402165     A.U. after    1 cycles

 The electronic state is 2-A.
 Alpha  occ. eigenvalues --  -19.69756 -19.69584 -19.63153 -10.59620 -10.56141
 Alpha  occ. eigenvalues --   -1.27905  -1.15660  -1.00014  -0.86429  -0.72600
 Alpha  occ. eigenvalues --   -0.63237  -0.59838  -0.59642  -0.54138  -0.52939
 Alpha  occ. eigenvalues --   -0.51220  -0.47628  -0.42559  -0.40475  -0.38519
 Alpha  occ. eigenvalues --   -0.37040  -0.31027
 Alpha virt. eigenvalues --    0.05141   0.06301   0.09931   0.11600   0.12232
 Alpha virt. eigenvalues --    0.13860   0.16205   0.20855   0.23496   0.25467
 Alpha virt. eigenvalues --    0.27728   0.30513   0.33090   0.35635   0.38190

  Beta  occ. eigenvalues --  -19.69595 -19.68646 -19.63023 -10.59646 -10.55624
  Beta  occ. eigenvalues --   -1.26229  -1.15206  -0.97589  -0.84899  -0.71500
  Beta  occ. eigenvalues --   -0.61714  -0.59334  -0.56473  -0.53450  -0.51167
  Beta  occ. eigenvalues --   -0.49610  -0.46906  -0.41323  -0.37980  -0.37080
  Beta  occ. eigenvalues --   -0.35393
  Beta virt. eigenvalues --   -0.09263   0.05228   0.06265   0.10076   0.11831
  Beta virt. eigenvalues --    0.12251   0.14442   0.16484   0.21272   0.23847
  Beta virt. eigenvalues --    0.26171   0.28023   0.30717   0.33672   0.35844

 Mulliken charges and spin densities:
               1          2
     1  O   -0.371822   0.041428
     2  O   -0.236980   0.050637
     3  O   -0.208021   0.386643
     4  C   -0.061514  -0.024224
     5  C   -0.368323   0.629666
     6  H    0.093827  -0.000074
     7  H    0.130608   0.002646
     8  H    0.230061  -0.021526
     9  H    0.130638  -0.031059
    10  H    0.150218  -0.031977
    11  H    0.240921   0.000423
    12  H    0.270386  -0.002583
 Sum of Mulliken charges =  -0.00000   1.00000

 Dipole moment (field-independent basis, Debye):
    X=             -1.0941    Y=              0.2607    Z=              2.0390  Tot=              2.3287
 Quadrupole moment (field-independent basis, Debye-Ang):
   XX=            -36.5080   YY=            -29.0566   ZZ=            -30.4009
   XY=             -6.7420   XZ=             -0.6538   YZ=             -1.7289

  Exact polarizability:  71.154  -8.327  45.437   1.216  -0.328  35.255
 Approx polarizability:  69.196  -7.421  52.957   1.573   1.646  42.667

 ******    1 imaginary frequencies (negative Signs) ******

                      1                      2                      3
                      A                      A                      A
 Frequencies --  -1879.2317                28.1012                73.5767
 Red. masses --      1.1031                 2.7355                 3.1367
 Frc consts  --      2.2953                 0.0013                 0.0100
 IR Inten    --   1664.3652                 7.3382                 3.7603

                      4                      5                      6
                      A                      A                      A
 Frequencies --     96.7692               223.7483               307.0091
 Red. masses --      4.9233                 4.0838                 1.0997
 Frc consts  --      0.0272                 0.1205                 0.0611
 IR Inten    --      3.0432                 1.1970               102.4996

                      7                      8                      9
                      A                      A                      A
 Frequencies --    384.2680               399.8850               524.5656
 Red. masses --      2.2367                 1.4029                 1.2979
 Frc consts  --      0.1946                 0.1322                 0.2104
 IR Inten    --     58.8801                86.3762                25.0717

                     10                     11                     12
                      A                      A                      A
 Frequencies --    589.9569               808.5158               978.4276
 Red. masses --      2.5179                 1.0706                 1.7521
 Frc consts  --      0.5163                 0.4123                 0.9882
 IR Inten    --      1.6288                 2.4136                21.5260

                     13                     14                     15
                      A                      A                      A
 Frequencies --   1051.6331              1076.3783              1090.4523
 Red. masses --      1.9632                 6.2941                 2.9136
 Frc consts  --      1.2792                 4.2965                 2.0412
 IR Inten    --     41.0770                80.6456                35.3828

                     16                     17                     18
                      A                      A                      A
 Frequencies --   1112.2841              1151.5765              1282.4924
 Red. masses --      1.4413                 1.4281                 1.2695
 Frc consts  --      1.0506                 1.1158                 1.2302
 IR Inten    --     33.4322                14.7233                18.3394

                     19                     20                     21
                      A                      A                      A
 Frequencies --   1367.7630              1408.8754              1413.3640
 Red. masses --      1.1867                 1.2062                 1.1132
 Frc consts  --      1.3080                 1.4106                 1.3101
 IR Inten    --      2.8735                51.8159                51.0902

                     22                     23                     24
                      A                      A                      A
 Frequencies --   1449.2694              1469.6564              1524.9730
 Red. masses --      1.0489                 1.1887                 1.0840
 Frc consts  --      1.2980                 1.5127                 1.4853
 IR Inten    --      4.6166                 5.2943                 1.1452

                     25                     26                     27
                      A                      A                      A
 Frequencies --   3038.1202              3106.2446              3125.4717
 Red. masses --      1.0686                 1.0554                 1.0928
 Frc consts  --      5.8112                 6.0001                 6.2895
 IR Inten    --     35.7607                 6.1136                 8.1402

                     28                     29                     30
                      A                      A                      A
 Frequencies --   3198.6868              3809.4219              3878.8587
 Red. masses --      1.1121                 1.0684                 1.0666
 Frc consts  --      6.7040                 9.1350                 9.4548
 IR Inten    --      8.3340                59.6785                48.3493

 - Thermochemistry -
 -------------------
 Temperature   298.150 Kelvin.  Pressure   1.00000 Atm.
 Atom     1 has atomic number  8 and mass  15.99491

 Molecular mass:    79.03952 amu.
 Principal axes and moments of inertia in atomic units:
                           1         2         3
     Eigenvalues --   160.86384 948.042351063.38054
           X            0.99987  -0.01575  -0.00173
           Y            0.01566   0.99896  -0.04280
           Z            0.00240   0.04277   0.99908
 This molecule is an asymmetric top.
 Rotational symmetry number  1.
 Rotational temperatures (Kelvin)      0.53843     0.09136     0.08145
 Rotational constants (GHZ):          11.21906     1.90365     1.69717
    1 imaginary frequencies ignored.
 Zero-point vibrational energy     239075.8 (Joules/Mol)
                                   57.14048 (Kcal/Mol)
 Warning -- explicit consideration of   9 degrees of freedom as
           vibrations may cause significant error
 Vibrational temperatures:     40.43   105.86   139.23   321.92   441.72
          (Kelvin)            552.88   575.35   754.73   848.82  1163.27
                             1407.74  1513.07  1548.67  1568.92  1600.33
                             1656.86  1845.22  1967.91  2027.06  2033.52
                             2085.18  2114.51  2194.10  4371.18  4469.19
                             4496.86  4602.20  5480.91  5580.81

 Zero-point correction=                           0.091059 (Hartree/Particle)
 Thermal correction to Energy=                    0.098537
 Thermal correction to Enthalpy=                  0.099482
 Thermal correction to Gibbs Free Energy=         0.057852
 Sum of electronic and zero-point Energies=           -305.803343
 Sum of electronic and thermal Energies=              -305.795865
 Sum of electronic and thermal Enthalpies=            -305.794921
 Sum of electronic and thermal Free Energies=         -305.836550

                     E (Thermal)             CV                S
                      KCal/Mol        Cal/Mol-Kelvin    Cal/Mol-Kelvin
 Total                   61.833             23.732             87.617
 Electronic               0.000              0.000              1.377
 Translational            0.889              2.981             39.017
 Rotational               0.889              2.981             26.586
 Vibrational             60.056             17.770             20.636
 Vibration     1          0.593              1.984              5.959
 Vibration     2          0.599              1.966              4.055
 Vibration     3          0.603              1.951              3.518
 Vibration     4          0.649              1.805              1.929
 Vibration     5          0.697              1.660              1.378
 Vibration     6          0.753              1.504              1.022
 Vibration     7          0.766              1.470              0.963
 Vibration     8          0.880              1.196              0.599
 Vibration     9          0.947              1.053              0.467

 Optimization completed.
    -- Stationary point found.
 Normal termination of Gaussian 16 at Sat Jun 22 13:46:37 2019.
