 Gaussian 16, Revision A.03,
 Gaussian 16:  EM64L-G16RevA.03 25-Dec-2016

 ----------------------------------------------------------------------
 #p m062x/cc-pVTZ Opt=(ModRedun,Loose,maxcycles=900) Int(Grid=SG1) scf=
 (maxcycle=900)
 ----------------------------------------------------------------------

 ------------------------------
 Gaussian input prepared by ASE
 ------------------------------
 Symbolic Z-matrix:
 Charge =  0 Multiplicity = 2

 SCF Done:  E(UM062X) =  -305.881116178     A.U. after   16 cycles
 SCF Done:  E(UM062X) =  -305.887594362     A.U. after   15 cycles
 SCF Done:  E(UM062X) =  -305.889177349     A.U. after   16 cycles
 SCF Done:  E(UM062X) =  -305.889378668     A.U. after   17 cycles
 SCF Done:  E(UM062X) =  -305.889708291     A.U. after   16 cycles
 SCF Done:  E(UM062X) =  -305.889800393     A.U. after   14 cycles
 SCF Done:  E(UM062X) =  -305.889932098     A.U. after   15 cycles
 SCF Done:  E(UM062X) =  -305.890253801     A.U. after   15 cycles
 SCF Done:  E(UM062X) =  -305.890233471     A.U. after   14 cycles
 SCF Done:  E(UM062X) =  -305.890276778     A.U. after   14 cycles
 SCF Done:  E(UM062X) =  -305.890233684     A.U. after   14 cycles
 SCF Done:  E(UM062X) =  -305.890287794     A.U. after   14 cycles
 SCF Done:  E(UM062X) =  -305.890302884     A.U. after   12 cycles
 SCF Done:  E(UM062X) =  -305.890312829     A.U. after   12 cycles
 SCF Done:  E(UM062X) =  -305.890314798     A.U. after   10 cycles
 SCF Done:  E(UM062X) =  -305.890308653     A.U. after   12 cycles
 SCF Done:  E(UM062X) =  -305.890310299     A.U. after   12 cycles
 Optimization completed.
    -- Stationary point found.

                         Standard orientation:
 ---------------------------------------------------------------------
 Center     Atomic      Atomic             Coordinates (Angstroms)
 Number     Number       Type             X           Y           Z
 ---------------------------------------------------------------------
      1          8           0       -2.000420   -0.608856   -0.495186
      2          8           0        1.870928   -0.637008    0.357442
      3          8           0        1.659261    0.173216   -0.750092
      4          6           0       -1.212825   -0.129797    0.573080
      5          6           0       -0.377905    1.057853    0.201629
      6          1           0       -1.839212    0.122406    1.441872
      7          1           0       -0.566764   -0.954119    0.875863
      8          1           0        0.562356    0.546864   -0.651607
      9          1           0       -0.884415    1.826478   -0.379664
     10          1           0        0.236091    1.460933    1.000767
     11          1           0       -2.603971    0.086296   -0.769188
     12          1           0        2.402153   -0.076008    0.936397
 ---------------------------------------------------------------------

 The electronic state is 2-A.
 Alpha  occ. eigenvalues --  -19.69310 -19.68897 -19.62443 -10.59369 -10.55979
 Alpha  occ. eigenvalues --   -1.27419  -1.15193  -0.99552  -0.86235  -0.72420
 Alpha  occ. eigenvalues --   -0.62803  -0.60298  -0.57707  -0.54448  -0.52396
 Alpha  occ. eigenvalues --   -0.52102  -0.46174  -0.41891  -0.40953  -0.37824
 Alpha  occ. eigenvalues --   -0.36604  -0.29541
 Alpha virt. eigenvalues --    0.05119   0.06521   0.10331   0.11112   0.13020
 Alpha virt. eigenvalues --    0.15072   0.15972   0.19333   0.22352   0.23573
 Alpha virt. eigenvalues --    0.27771   0.32248   0.35773   0.38255   0.40487

  Beta  occ. eigenvalues --  -19.69170 -19.67950 -19.62446 -10.59392 -10.55436
  Beta  occ. eigenvalues --   -1.25790  -1.15165  -0.97176  -0.84739  -0.71169
  Beta  occ. eigenvalues --   -0.61219  -0.58776  -0.56017  -0.53659  -0.51414
  Beta  occ. eigenvalues --   -0.49787  -0.45518  -0.41096  -0.38273  -0.36189
  Beta  occ. eigenvalues --   -0.35206
  Beta virt. eigenvalues --   -0.07632   0.05249   0.06547   0.10397   0.10984
  Beta virt. eigenvalues --    0.13424   0.15333   0.16223   0.19420   0.23023
  Beta virt. eigenvalues --    0.23919   0.28040   0.32416   0.35939   0.38330

 Mulliken charges and spin densities:
               1          2
     1  O   -0.375403   0.000850
     2  O   -0.239783   0.040284
     3  O   -0.215406   0.382304
     4  C   -0.030411  -0.035817
     5  C   -0.389125   0.646384
     6  H    0.092131   0.041556
     7  H    0.134948   0.013297
     8  H    0.247992  -0.027079
     9  H    0.128430  -0.027671
    10  H    0.138740  -0.032546
    11  H    0.239702   0.000299
    12  H    0.268186  -0.001862
 Sum of Mulliken charges =  -0.00000   1.00000

 Dipole moment (field-independent basis, Debye):
    X=             -0.7711    Y=              2.7278    Z=              2.1912  Tot=              3.5828
 Quadrupole moment (field-independent basis, Debye-Ang):
   XX=            -27.9531   YY=            -32.7532   ZZ=            -30.0529
   XY=             -2.2518   XZ=              4.4968   YZ=             -1.0549

 Normal termination of Gaussian 16 at Thu May 30 06:38:11 2019.
