 Gaussian 16, Revision A.03,
 Gaussian 16:  EM64L-G16RevA.03 25-Dec-2016

 ----------------------------------------------------------------------
 #p m062x/cc-pVTZ Opt=(ModRedun,Loose,maxcycles=900) Int(Grid=SG1) scf=
 (maxcycle=900)
 ----------------------------------------------------------------------

 ------------------------------
 Gaussian input prepared by ASE
 ------------------------------
 Symbolic Z-matrix:
 Charge =  0 Multiplicity = 2

 SCF Done:  E(UM062X) =  -305.877065242     A.U. after   17 cycles
 SCF Done:  E(UM062X) =  -305.883958334     A.U. after   14 cycles
 SCF Done:  E(UM062X) =  -305.885549115     A.U. after   13 cycles
 SCF Done:  E(UM062X) =  -305.886345507     A.U. after   15 cycles
 SCF Done:  E(UM062X) =  -305.886486951     A.U. after   15 cycles
 SCF Done:  E(UM062X) =  -305.886745809     A.U. after   15 cycles
 SCF Done:  E(UM062X) =  -305.887024988     A.U. after   14 cycles
 SCF Done:  E(UM062X) =  -305.887012349     A.U. after   15 cycles
 SCF Done:  E(UM062X) =  -305.870759726     A.U. after   16 cycles
 SCF Done:  E(UM062X) =  -305.813914877     A.U. after   16 cycles
 SCF Done:  E(UM062X) =  -305.889237184     A.U. after   14 cycles
 SCF Done:  E(UM062X) =  -305.889847866     A.U. after   11 cycles
 SCF Done:  E(UM062X) =  -305.890088546     A.U. after   14 cycles
 SCF Done:  E(UM062X) =  -305.889151089     A.U. after   14 cycles
 SCF Done:  E(UM062X) =  -305.890120352     A.U. after   15 cycles
 SCF Done:  E(UM062X) =  -305.890114072     A.U. after   13 cycles
 SCF Done:  E(UM062X) =  -305.890193039     A.U. after   12 cycles
 SCF Done:  E(UM062X) =  -305.890207460     A.U. after   13 cycles
 SCF Done:  E(UM062X) =  -305.890207862     A.U. after   11 cycles
 SCF Done:  E(UM062X) =  -305.890201114     A.U. after   11 cycles
 Optimization completed.
    -- Stationary point found.

                         Standard orientation:
 ---------------------------------------------------------------------
 Center     Atomic      Atomic             Coordinates (Angstroms)
 Number     Number       Type             X           Y           Z
 ---------------------------------------------------------------------
      1          8           0       -2.181819   -0.796494    0.193222
      2          8           0        2.487127    0.073538    0.315605
      3          8           0        1.597687   -0.465441   -0.607694
      4          6           0       -1.682449    0.420138   -0.321084
      5          6           0       -0.328750    0.775156    0.213099
      6          1           0       -1.644662    0.301137   -1.404370
      7          1           0       -2.381622    1.245850   -0.121300
      8          1           0        0.544856   -0.200486   -0.184853
      9          1           0       -0.215430    0.715445    1.295651
     10          1           0        0.130637    1.662440   -0.209826
     11          1           0       -2.244163   -0.724405    1.149069
     12          1           0        2.653624   -0.664573    0.914475
 ---------------------------------------------------------------------

 The electronic state is 2-A.
 Alpha  occ. eigenvalues --  -19.68785 -19.68702 -19.62817 -10.59818 -10.55978
 Alpha  occ. eigenvalues --   -1.26942  -1.15554  -0.99220  -0.86262  -0.72785
 Alpha  occ. eigenvalues --   -0.62849  -0.59895  -0.56990  -0.54579  -0.52820
 Alpha  occ. eigenvalues --   -0.52088  -0.46318  -0.42416  -0.40209  -0.37771
 Alpha  occ. eigenvalues --   -0.36710  -0.29750
 Alpha virt. eigenvalues --    0.05444   0.06491   0.09522   0.11858   0.12773
 Alpha virt. eigenvalues --    0.13849   0.15126   0.19996   0.22112   0.23861
 Alpha virt. eigenvalues --    0.29637   0.30266   0.35082   0.38009   0.40401

  Beta  occ. eigenvalues --  -19.68663 -19.67765 -19.62818 -10.59845 -10.55431
  Beta  occ. eigenvalues --   -1.25334  -1.15516  -0.96870  -0.84793  -0.71474
  Beta  occ. eigenvalues --   -0.61376  -0.58828  -0.54800  -0.53085  -0.51956
  Beta  occ. eigenvalues --   -0.50359  -0.45674  -0.41657  -0.37600  -0.36292
  Beta  occ. eigenvalues --   -0.35348
  Beta virt. eigenvalues --   -0.07759   0.05384   0.06576   0.09522   0.11976
  Beta virt. eigenvalues --    0.12754   0.14242   0.15535   0.20027   0.23010
  Beta virt. eigenvalues --    0.24315   0.30189   0.30537   0.35250   0.38103

 Mulliken charges and spin densities:
               1          2
     1  O   -0.380372   0.001599
     2  O   -0.246024   0.036793
     3  O   -0.220052   0.381227
     4  C   -0.035510  -0.031153
     5  C   -0.360024   0.649617
     6  H    0.121871   0.011940
     7  H    0.096366   0.039756
     8  H    0.235981  -0.025151
     9  H    0.128459  -0.028094
    10  H    0.149832  -0.034695
    11  H    0.242251   0.000065
    12  H    0.267221  -0.001904
 Sum of Mulliken charges =  -0.00000   1.00000

 Dipole moment (field-independent basis, Debye):
    X=             -0.8660    Y=              0.7927    Z=              2.5213  Tot=              2.7813
 Quadrupole moment (field-independent basis, Debye-Ang):
   XX=            -33.7464   YY=            -31.8091   ZZ=            -27.4781
   XY=             -5.4973   XZ=              1.7328   YZ=             -2.8957

 Normal termination of Gaussian 16 at Sat Jun 22 13:02:43 2019.
