 Gaussian 16, Revision A.03,
 Gaussian 16:  EM64L-G16RevA.03 25-Dec-2016

 ----------------------------------------------------------------------
 #p m062x/cc-pVTZ Opt=(ModRedun,Loose,maxcycles=900) Int(Grid=SG1) scf=
 (maxcycle=900)
 ----------------------------------------------------------------------

 ------------------------------
 Gaussian input prepared by ASE
 ------------------------------
 Symbolic Z-matrix:
 Charge =  0 Multiplicity = 2

 SCF Done:  E(UM062X) =  -305.909236928     A.U. after   17 cycles
 SCF Done:  E(UM062X) =  -305.908207850     A.U. after   17 cycles
 SCF Done:  E(UM062X) =  -305.908430118     A.U. after   16 cycles
 SCF Done:  E(UM062X) =  -305.911868321     A.U. after   13 cycles
 SCF Done:  E(UM062X) =  -305.912629293     A.U. after   15 cycles
 SCF Done:  E(UM062X) =  -305.913344340     A.U. after   15 cycles
 SCF Done:  E(UM062X) =  -305.913377453     A.U. after   14 cycles
 SCF Done:  E(UM062X) =  -305.913442571     A.U. after   13 cycles
 SCF Done:  E(UM062X) =  -305.913453708     A.U. after   12 cycles
 SCF Done:  E(UM062X) =  -305.913458192     A.U. after   13 cycles
 SCF Done:  E(UM062X) =  -305.913459700     A.U. after   12 cycles
 SCF Done:  E(UM062X) =  -305.913459105     A.U. after   12 cycles
 Optimization completed.
    -- Stationary point found.

                         Standard orientation:
 ---------------------------------------------------------------------
 Center     Atomic      Atomic             Coordinates (Angstroms)
 Number     Number       Type             X           Y           Z
 ---------------------------------------------------------------------
      1          8           0       -0.824230   -1.186557   -0.393257
      2          8           0        1.610936   -0.458564    0.463171
      3          8           0        1.466646    0.543268   -0.402153
      4          6           0       -1.301273   -0.119809    0.433830
      5          6           0       -0.819106    1.235686   -0.030525
      6          1           0       -2.393209   -0.155930    0.479755
      7          1           0       -0.921383   -0.338028    1.431789
      8          1           0       -1.162059    1.450061   -1.045013
      9          1           0       -1.173506    2.024485    0.632713
     10          1           0       -0.987812   -0.955540   -1.312273
     11          1           0        0.996346   -1.138454    0.114527
     12          1           0        0.337081    1.232961   -0.063407
 ---------------------------------------------------------------------

 The electronic state is 2-A.
 Alpha  occ. eigenvalues --  -19.71501 -19.70300 -19.64456 -10.59637 -10.53242
 Alpha  occ. eigenvalues --   -1.31656  -1.16550  -0.98664  -0.85762  -0.72885
 Alpha  occ. eigenvalues --   -0.65656  -0.60448  -0.57392  -0.56029  -0.54288
 Alpha  occ. eigenvalues --   -0.52073  -0.45385  -0.44617  -0.41733  -0.38152
 Alpha  occ. eigenvalues --   -0.37476  -0.32709
 Alpha virt. eigenvalues --    0.05442   0.09240   0.09604   0.12254   0.14378
 Alpha virt. eigenvalues --    0.15266   0.17913   0.19546   0.22352   0.26040
 Alpha virt. eigenvalues --    0.28149   0.29879   0.35810   0.36413   0.38189

  Beta  occ. eigenvalues --  -19.70940 -19.68883 -19.64456 -10.59645 -10.53018
  Beta  occ. eigenvalues --   -1.28731  -1.16524  -0.94605  -0.85154  -0.72238
  Beta  occ. eigenvalues --   -0.63850  -0.58280  -0.54961  -0.54214  -0.53283
  Beta  occ. eigenvalues --   -0.49272  -0.44780  -0.42616  -0.39944  -0.36430
  Beta  occ. eigenvalues --   -0.35289
  Beta virt. eigenvalues --   -0.06817   0.05502   0.09238   0.09855   0.12235
  Beta virt. eigenvalues --    0.14529   0.15555   0.18502   0.19748   0.23008
  Beta virt. eigenvalues --    0.26424   0.28465   0.30173   0.35884   0.36532

 Mulliken charges and spin densities:
               1          2
     1  O   -0.431123   0.000124
     2  O   -0.167891   0.198975
     3  O   -0.142870   0.635068
     4  C   -0.090012  -0.007978
     5  C   -0.378078   0.190907
     6  H    0.119700   0.012417
     7  H    0.137364   0.001927
     8  H    0.108454  -0.006202
     9  H    0.108418  -0.004467
    10  H    0.270548  -0.000030
    11  H    0.281881  -0.008116
    12  H    0.183609  -0.012625
 Sum of Mulliken charges =  -0.00000   1.00000

 Dipole moment (field-independent basis, Debye):
    X=             -2.2760    Y=             -0.1381    Z=             -0.6819  Tot=              2.3800
 Quadrupole moment (field-independent basis, Debye-Ang):
   XX=            -33.3007   YY=            -32.0219   ZZ=            -28.7746
   XY=             -2.3970   XZ=              0.3494   YZ=              0.9947

 Normal termination of Gaussian 16 at Thu May 30 06:36:17 2019.
