 Gaussian 16, Revision A.03,
 Gaussian 16:  EM64L-G16RevA.03 25-Dec-2016

 --------------------------------------
 #p m062x/cc-pVTZ Opt=(CalcFC,ModRedun)
 --------------------------------------

 ------------------------------
 Gaussian input prepared by ASE
 ------------------------------
 Symbolic Z-matrix:
 Charge =  0 Multiplicity = 2

 SCF Done:  E(UM062X) =  -154.353580846     A.U. after   14 cycles

  Exact polarizability:   0.000   0.000   0.000   0.000   0.000   0.000
 Approx polarizability:  34.064  -0.864  32.158  -0.716  -0.156  27.030

 Optimization completed.
    -- Stationary point found.
 SCF Done:  E(UM062X) =  -154.352347657     A.U. after   12 cycles
 SCF Done:  E(UM062X) =  -154.353477304     A.U. after   12 cycles
 SCF Done:  E(UM062X) =  -154.353479894     A.U. after    9 cycles
 Optimization completed.
 SCF Done:  E(UM062X) =  -154.352034318     A.U. after   11 cycles
 SCF Done:  E(UM062X) =  -154.353208946     A.U. after   12 cycles
 SCF Done:  E(UM062X) =  -154.353211969     A.U. after    9 cycles
 SCF Done:  E(UM062X) =  -154.351594112     A.U. after   11 cycles
 SCF Done:  E(UM062X) =  -154.352832973     A.U. after   12 cycles
 SCF Done:  E(UM062X) =  -154.352834985     A.U. after    9 cycles
 SCF Done:  E(UM062X) =  -154.352931275     A.U. after    9 cycles
 SCF Done:  E(UM062X) =  -154.352168739     A.U. after   11 cycles
 SCF Done:  E(UM062X) =  -154.353257047     A.U. after   12 cycles
 SCF Done:  E(UM062X) =  -154.353259185     A.U. after    8 cycles
 SCF Done:  E(UM062X) =  -154.352402327     A.U. after   11 cycles
 SCF Done:  E(UM062X) =  -154.353494912     A.U. after   12 cycles
 SCF Done:  E(UM062X) =  -154.353497890     A.U. after    9 cycles
    -- Stationary point found.
 SCF Done:  E(UM062X) =  -154.352473163     A.U. after   11 cycles
 SCF Done:  E(UM062X) =  -154.353578327     A.U. after   12 cycles
 SCF Done:  E(UM062X) =  -154.353580846     A.U. after    8 cycles
 Optimization completed.
    -- Stationary point found.

                         Standard orientation:
 ---------------------------------------------------------------------
 Center     Atomic      Atomic             Coordinates (Angstroms)
 Number     Number       Type             X           Y           Z
 ---------------------------------------------------------------------
      1          8           0       -1.102836   -0.376943   -0.048667
      2          6           0       -0.010644    0.520565    0.032910
      3          6           0        1.246593   -0.254081   -0.023118
      4          1           0       -0.037550    1.253041   -0.784868
      5          1           0       -0.059897    1.098446    0.970138
      6          1           0        2.188132    0.246419   -0.182736
      7          1           0        1.233425   -1.295959    0.254889
      8          1           0       -1.917118    0.114695    0.073159
 ---------------------------------------------------------------------

 The electronic state is 2-A.
 Alpha  occ. eigenvalues --  -19.61930 -10.58926 -10.53982  -1.14597  -0.84884
 Alpha  occ. eigenvalues --   -0.69198  -0.60295  -0.53736  -0.48930  -0.46997
 Alpha  occ. eigenvalues --   -0.41573  -0.36213  -0.26096
 Alpha virt. eigenvalues --    0.06518   0.10561   0.12630   0.13840   0.15595
 Alpha virt. eigenvalues --    0.20399   0.23602   0.30582   0.36826   0.37803
 Alpha virt. eigenvalues --    0.39619   0.40827   0.42061   0.45446   0.48295

  Beta  occ. eigenvalues --  -19.61922 -10.58996 -10.53248  -1.14531  -0.82696
  Beta  occ. eigenvalues --   -0.66633  -0.59879  -0.52530  -0.48263  -0.45995
  Beta  occ. eigenvalues --   -0.40967  -0.35483
  Beta virt. eigenvalues --   -0.01246   0.06203   0.10102   0.12477   0.13058
  Beta virt. eigenvalues --    0.15450   0.20144   0.23562   0.29441   0.35436
  Beta virt. eigenvalues --    0.37462   0.39868   0.41017   0.41952   0.44696

 Mulliken charges and spin densities:
               1          2
     1  O   -0.383707   0.005447
     2  C    0.038504  -0.071467
     3  C   -0.396601   1.058995
     4  H    0.077942   0.031774
     5  H    0.078122   0.055447
     6  H    0.160753  -0.042152
     7  H    0.180084  -0.038801
     8  H    0.244903   0.000759
 Sum of Mulliken charges =  -0.00000   1.00000

 Dipole moment (field-independent basis, Debye):
    X=             -0.2911    Y=              1.6752    Z=              0.3857  Tot=              1.7435
 Quadrupole moment (field-independent basis, Debye-Ang):
   XX=            -16.2081   YY=            -19.3946   ZZ=            -20.5048
   XY=             -1.7623   XZ=             -0.4787   YZ=             -0.4173

 Normal termination of Gaussian 16 at Wed Aug 28 11:59:42 2019.
