 Gaussian 16, Revision A.03,
 Gaussian 16:  EM64L-G16RevA.03 25-Dec-2016

 --------------------------------------
 #p m062x/cc-pVTZ Opt=(CalcFC,ModRedun)
 --------------------------------------

 ------------------------------
 Gaussian input prepared by ASE
 ------------------------------
 Symbolic Z-matrix:
 Charge =  0 Multiplicity = 1

 SCF Done:  E(RM062X) =  -151.548851825     A.U. after   12 cycles

  Exact polarizability:   0.000   0.000   0.000   0.000   0.000   0.000
 Approx polarizability:  17.925   0.640  11.555   0.000   0.000   9.614

 Optimization completed.
    -- Stationary point found.
 SCF Done:  E(RM062X) =  -151.548697278     A.U. after   12 cycles
 SCF Done:  E(RM062X) =  -151.548708901     A.U. after    8 cycles
 Optimization completed.
 SCF Done:  E(RM062X) =  -151.548241631     A.U. after    9 cycles
 SCF Done:  E(RM062X) =  -151.548253752     A.U. after    7 cycles
 SCF Done:  E(RM062X) =  -151.547424772     A.U. after   10 cycles
 SCF Done:  E(RM062X) =  -151.547437958     A.U. after    7 cycles
 SCF Done:  E(RM062X) =  -151.546262163     A.U. after    9 cycles
 SCF Done:  E(RM062X) =  -151.546277840     A.U. after    7 cycles
 SCF Done:  E(RM062X) =  -151.544799585     A.U. after   10 cycles
 SCF Done:  E(RM062X) =  -151.547706205     A.U. after   10 cycles
 SCF Done:  E(RM062X) =  -151.547709146     A.U. after    8 cycles
 SCF Done:  E(RM062X) =  -151.548075787     A.U. after   10 cycles
 SCF Done:  E(RM062X) =  -151.548081178     A.U. after    8 cycles
 SCF Done:  E(RM062X) =  -151.548444563     A.U. after   10 cycles
 SCF Done:  E(RM062X) =  -151.548452798     A.U. after    8 cycles
 SCF Done:  E(RM062X) =  -151.548729179     A.U. after   10 cycles
 SCF Done:  E(RM062X) =  -151.548738888     A.U. after    8 cycles
    -- Stationary point found.
 SCF Done:  E(RM062X) =  -151.548839449     A.U. after   10 cycles
 SCF Done:  E(RM062X) =  -151.548850500     A.U. after    8 cycles
 Optimization completed.
    -- Stationary point found.

                         Standard orientation:
 ---------------------------------------------------------------------
 Center     Atomic      Atomic             Coordinates (Angstroms)
 Number     Number       Type             X           Y           Z
 ---------------------------------------------------------------------
      1          8           0        0.000000    0.711890   -0.058235
      2          8           0       -0.000000   -0.711890   -0.058235
      3          1           0       -0.786066    0.900067    0.465883
      4          1           0        0.786066   -0.900067    0.465883
 ---------------------------------------------------------------------

 The electronic state is 1-A.
 Alpha  occ. eigenvalues --  -19.68162 -19.68145  -1.26080  -1.01281  -0.61620
 Alpha  occ. eigenvalues --   -0.58649  -0.51252  -0.40343  -0.36728
 Alpha virt. eigenvalues --    0.06536   0.06766   0.14789   0.43077   0.44566
 Alpha virt. eigenvalues --    0.54259   0.54342   0.61136   0.64480   0.68235
 Alpha virt. eigenvalues --    0.70888   0.72767   0.73663   0.86083   0.86546

 Mulliken charges:
               1
     1  O   -0.269746
     2  O   -0.269746
     3  H    0.269746
     4  H    0.269746
 Sum of Mulliken charges =  -0.00000

 Dipole moment (field-independent basis, Debye):
    X=             -0.0000    Y=              0.0000    Z=              1.8440  Tot=              1.8440
 Quadrupole moment (field-independent basis, Debye-Ang):
   XX=             -9.5562   YY=            -11.2656   ZZ=            -11.5710
   XY=             -2.9466   XZ=              0.0000   YZ=             -0.0000

 Normal termination of Gaussian 16 at Fri Aug  9 22:50:41 2019.
