 Gaussian 16, Revision A.03,
 Gaussian 16:  EM64L-G16RevA.03 25-Dec-2016

 ----------------------------------------------------------------------
 #p m062x/cc-pVTZ opt=(calcfc,maxcycles=900) freq IOP(7/33=1,2/16=3) sc
 f=(maxcycle=900)
 ----------------------------------------------------------------------

 ------------------------------
 Gaussian input prepared by ASE
 ------------------------------
 Symbolic Z-matrix:
 Charge =  0 Multiplicity = 1

 SCF Done:  E(RM062X) =  -155.022126863     A.U. after   12 cycles
 SCF Done:  E(RM062X) =  -155.025755713     A.U. after   11 cycles
 SCF Done:  E(RM062X) =  -155.026283099     A.U. after   10 cycles
 SCF Done:  E(RM062X) =  -155.026293133     A.U. after    8 cycles
 Optimization completed.
    -- Stationary point found.
 Normal termination of Gaussian 16 at Thu May 23 01:52:31 2019.

 ----------------------------------------------------------------------
 #P Geom=AllCheck Guess=TCheck SCRF=Check Test GenChk RM062X/CC-pVTZ Fr
 eq
 ----------------------------------------------------------------------

 Structure from the checkpoint file:  "/scratch/harms.n/gauss_scrdir/Gau-15042.chk"
 ------------------------------
 Gaussian input prepared by ASE
 ------------------------------
 Charge =  0 Multiplicity = 1

                         Standard orientation:
 ---------------------------------------------------------------------
 Center     Atomic      Atomic             Coordinates (Angstroms)
 Number     Number       Type             X           Y           Z
 ---------------------------------------------------------------------
      1          8           0        1.143091   -0.394980   -0.000123
      2          6           0        0.084694    0.548249   -0.000034
      3          6           0       -1.215850   -0.221960    0.000070
      4          1           0        0.139576    1.191600    0.884228
      5          1           0        0.139240    1.191307   -0.884542
      6          1           0       -1.275542   -0.855576    0.883782
      7          1           0       -2.066390    0.458861   -0.001374
      8          1           0       -1.274383   -0.857720   -0.882158
      9          1           0        1.979706    0.073633    0.000833
 ---------------------------------------------------------------------

 SCF Done:  E(RM062X) =  -155.026293133     A.U. after    1 cycles

 The electronic state is 1-A.
 Alpha  occ. eigenvalues --  -19.61476 -10.58030 -10.52124  -1.14026  -0.84636
 Alpha  occ. eigenvalues --   -0.69647  -0.59390  -0.54094  -0.47442  -0.44610
 Alpha  occ. eigenvalues --   -0.43228  -0.39846  -0.34650
 Alpha virt. eigenvalues --    0.06502   0.09590   0.12841   0.12975   0.14885
 Alpha virt. eigenvalues --    0.17214   0.21373   0.23207   0.29061   0.30902
 Alpha virt. eigenvalues --    0.35168   0.37226   0.41319   0.42186   0.46702

 Mulliken charges:
               1
     1  O   -0.388908
     2  C   -0.006087
     3  C   -0.319995
     4  H    0.072694
     5  H    0.072667
     6  H    0.114865
     7  H    0.095026
     8  H    0.114912
     9  H    0.244826
 Sum of Mulliken charges =   0.00000

 Dipole moment (field-independent basis, Debye):
    X=              0.2125    Y=              1.5538    Z=              0.0016  Tot=              1.5682
 Quadrupole moment (field-independent basis, Debye-Ang):
   XX=            -17.0688   YY=            -20.6930   ZZ=            -20.1713
   XY=              1.8501   XZ=              0.0044   YZ=              0.0007

  Exact polarizability:  33.818   0.753  29.639   0.003  -0.000  27.383
 Approx polarizability:  35.014  -0.072  33.752   0.004   0.001  31.563

                      1                      2                      3
                      A                      A                      A
 Frequencies --    232.0646               271.0821               421.5282
 Red. masses --      1.1482                 1.0722                 2.5914
 Frc consts  --      0.0364                 0.0464                 0.2713
 IR Inten    --     80.8852                40.8691                10.8137

                      4                      5                      6
                      A                      A                      A
 Frequencies --    825.1156               920.2627              1051.0247
 Red. masses --      1.0816                 2.0443                 1.8243
 Frc consts  --      0.4338                 1.0201                 1.1873
 IR Inten    --      0.0524                 7.5363                45.8042

                      7                      8                      9
                      A                      A                      A
 Frequencies --   1140.2409              1187.2448              1273.0114
 Red. masses --      2.7744                 1.5271                 1.2962
 Frc consts  --      2.1252                 1.2683                 1.2376
 IR Inten    --     39.4741                 4.2001                81.8398

                     10                     11                     12
                      A                      A                      A
 Frequencies --   1310.4951              1403.3690              1463.2471
 Red. masses --      1.1053                 1.2416                 1.4577
 Frc consts  --      1.1184                 1.4407                 1.8389
 IR Inten    --      0.0034                 2.1744                12.2280

                     13                     14                     15
                      A                      A                      A
 Frequencies --   1487.2728              1505.3793              1539.0316
 Red. masses --      1.0385                 1.0533                 1.0919
 Frc consts  --      1.3535                 1.4064                 1.5238
 IR Inten    --      5.7599                 2.5216                 1.5300

                     16                     17                     18
                      A                      A                      A
 Frequencies --   3021.6466              3052.4961              3071.5152
 Red. masses --      1.0559                 1.1078                 1.0347
 Frc consts  --      5.6802                 6.0819                 5.7512
 IR Inten    --     57.3616                44.1036                12.9634

                     19                     20                     21
                      A                      A                      A
 Frequencies --   3148.1370              3150.2782              3902.4224
 Red. masses --      1.1023                 1.1037                 1.0665
 Frc consts  --      6.4366                 6.4538                 9.5696
 IR Inten    --     20.8312                23.6062                39.6412

 - Thermochemistry -
 -------------------
 Temperature   298.150 Kelvin.  Pressure   1.00000 Atm.
 Atom     1 has atomic number  8 and mass  15.99491

 Molecular mass:    46.04186 amu.
 Principal axes and moments of inertia in atomic units:
                           1         2         3
     Eigenvalues --    51.06653 190.66940 219.25256
           X            0.99912   0.04194   0.00003
           Y           -0.04194   0.99912  -0.00001
           Z           -0.00003   0.00001   1.00000
 This molecule is an asymmetric top.
 Rotational symmetry number  1.
 Rotational temperatures (Kelvin)      1.69610     0.45426     0.39504
 Rotational constants (GHZ):          35.34098     9.46529     8.23133
 Zero-point vibrational energy     211600.6 (Joules/Mol)
                                   50.57377 (Kcal/Mol)
 Warning -- explicit consideration of   3 degrees of freedom as
           vibrations may cause significant error
 Vibrational temperatures:    333.89   390.03   606.49  1187.16  1324.05
          (Kelvin)           1512.19  1640.55  1708.18  1831.58  1885.51
                             2019.13  2105.29  2139.85  2165.91  2214.32
                             4347.48  4391.86  4419.23  4529.47  4532.55
                             5614.72

 Zero-point correction=                           0.080594 (Hartree/Particle)
 Thermal correction to Energy=                    0.084927
 Thermal correction to Enthalpy=                  0.085871
 Thermal correction to Gibbs Free Energy=         0.055158
 Sum of electronic and zero-point Energies=           -154.945699
 Sum of electronic and thermal Energies=              -154.941366
 Sum of electronic and thermal Enthalpies=            -154.940422
 Sum of electronic and thermal Free Energies=         -154.971135

                     E (Thermal)             CV                S
                      KCal/Mol        Cal/Mol-Kelvin    Cal/Mol-Kelvin
 Total                   53.292             13.484             64.640
 Electronic               0.000              0.000              0.000
 Translational            0.889              2.981             37.406
 Rotational               0.889              2.981             22.284
 Vibrational             51.515              7.523              4.950
 Vibration     1          0.653              1.792              1.863
 Vibration     2          0.675              1.727              1.589
 Vibration     3          0.784              1.423              0.887

 Optimization completed.
    -- Stationary point found.
 Normal termination of Gaussian 16 at Thu May 23 01:53:47 2019.
