 Gaussian 16, Revision A.03,
 Gaussian 16:  EM64L-G16RevA.03 25-Dec-2016

 ----------------------------------------------------------------------
 #p m062x/cc-pVTZ opt=(calcfc,maxcycles=900) freq IOP(7/33=1,2/16=3) sc
 f=(maxcycle=900)
 ----------------------------------------------------------------------

 ------------------------------
 Gaussian input prepared by ASE
 ------------------------------
 Symbolic Z-matrix:
 Charge =  0 Multiplicity = 1

 SCF Done:  E(RM062X) =  -155.020568510     A.U. after   12 cycles
 SCF Done:  E(RM062X) =  -155.024783257     A.U. after   13 cycles
 SCF Done:  E(RM062X) =  -155.025624170     A.U. after   13 cycles
 SCF Done:  E(RM062X) =  -155.026262684     A.U. after   11 cycles
 SCF Done:  E(RM062X) =  -155.026297326     A.U. after   10 cycles
 SCF Done:  E(RM062X) =  -155.026297916     A.U. after    8 cycles
 SCF Done:  E(RM062X) =  -155.026298461     A.U. after    8 cycles
 Optimization completed.
    -- Stationary point found.
 Normal termination of Gaussian 16 at Thu May 23 01:53:32 2019.

 ----------------------------------------------------------------------
 #P Geom=AllCheck Guess=TCheck SCRF=Check Test GenChk RM062X/CC-pVTZ Fr
 eq
 ----------------------------------------------------------------------

 Structure from the checkpoint file:  "/scratch/harms.n/gauss_scrdir/Gau-36052.chk"
 ------------------------------
 Gaussian input prepared by ASE
 ------------------------------
 Charge =  0 Multiplicity = 1

                         Standard orientation:
 ---------------------------------------------------------------------
 Center     Atomic      Atomic             Coordinates (Angstroms)
 Number     Number       Type             X           Y           Z
 ---------------------------------------------------------------------
      1          8           0        1.230235   -0.257466   -0.105889
      2          6           0        0.082699    0.558128    0.046999
      3          6           0       -1.205340   -0.240153   -0.021895
      4          1           0        0.130416    1.122881    0.983930
      5          1           0        0.124622    1.278873   -0.768739
      6          1           0       -1.258592   -0.958200    0.798849
      7          1           0       -2.074197    0.414354    0.050030
      8          1           0       -1.257886   -0.790195   -0.960466
      9          1           0        1.229595   -0.915839    0.592881
 ---------------------------------------------------------------------

 SCF Done:  E(RM062X) =  -155.026298460     A.U. after    1 cycles

 The electronic state is 1-A.
 Alpha  occ. eigenvalues --  -19.61487 -10.58050 -10.52765  -1.14084  -0.84605
 Alpha  occ. eigenvalues --   -0.71205  -0.57909  -0.52640  -0.50754  -0.45028
 Alpha  occ. eigenvalues --   -0.43808  -0.39257  -0.34784
 Alpha virt. eigenvalues --    0.06354   0.10011   0.11630   0.13311   0.14704
 Alpha virt. eigenvalues --    0.16411   0.20781   0.24106   0.28711   0.30401
 Alpha virt. eigenvalues --    0.35356   0.36456   0.39816   0.44017   0.47017

 Mulliken charges:
               1
     1  O   -0.388487
     2  C   -0.017188
     3  C   -0.328900
     4  H    0.077944
     5  H    0.102545
     6  H    0.093935
     7  H    0.099799
     8  H    0.119919
     9  H    0.240433
 Sum of Mulliken charges =  -0.00000

 Dipole moment (field-independent basis, Debye):
    X=             -1.2040    Y=             -0.1922    Z=              1.1303  Tot=              1.6625
 Quadrupole moment (field-independent basis, Debye-Ang):
   XX=            -22.3157   YY=            -18.6280   ZZ=            -19.2532
   XY=             -1.0170   XZ=              1.7014   YZ=             -1.4300

  Exact polarizability:  31.950  -0.323  30.447   0.211  -0.728  28.394
 Approx polarizability:  33.549  -1.324  34.236  -0.299  -1.241  33.291

                      1                      2                      3
                      A                      A                      A
 Frequencies --    252.3940               273.6552               425.9388
 Red. masses --      1.0370                 1.1641                 2.6690
 Frc consts  --      0.0389                 0.0514                 0.2853
 IR Inten    --     81.4430                36.9720                11.6267

                      4                      5                      6
                      A                      A                      A
 Frequencies --    807.2391               905.6585              1069.7611
 Red. masses --      1.0827                 2.0778                 1.4252
 Frc consts  --      0.4157                 1.0041                 0.9610
 IR Inten    --      2.6378                 6.7698                26.8676

                      7                      8                      9
                      A                      A                      A
 Frequencies --   1110.1167              1155.1853              1285.0819
 Red. masses --      2.5105                 2.2015                 1.2963
 Frc consts  --      1.8229                 1.7309                 1.2613
 IR Inten    --     86.6533                22.7922                12.3693

                     10                     11                     12
                      A                      A                      A
 Frequencies --   1378.7188              1401.8753              1430.2986
 Red. masses --      1.2015                 1.2202                 1.3301
 Frc consts  --      1.3457                 1.4129                 1.6032
 IR Inten    --      4.4375                 5.4427                45.8390

                     13                     14                     15
                      A                      A                      A
 Frequencies --   1492.4631              1498.9036              1529.7045
 Red. masses --      1.0454                 1.0447                 1.0916
 Frc consts  --      1.3720                 1.3829                 1.5049
 IR Inten    --      7.0795                 1.9221                 0.6306

                     16                     17                     18
                      A                      A                      A
 Frequencies --   3032.8948              3057.1257              3107.6273
 Red. masses --      1.0706                 1.0371                 1.0939
 Frc consts  --      5.8020                 5.7107                 6.2240
 IR Inten    --     54.5649                12.5912                 5.7873

                     19                     20                     21
                      A                      A                      A
 Frequencies --   3131.3211              3145.9832              3882.8728
 Red. masses --      1.1000                 1.1033                 1.0663
 Frc consts  --      6.3547                 6.4335                 9.4717
 IR Inten    --     42.2070                22.8935                30.4253

 - Thermochemistry -
 -------------------
 Temperature   298.150 Kelvin.  Pressure   1.00000 Atm.
 Atom     1 has atomic number  8 and mass  15.99491

 Molecular mass:    46.04186 amu.
 Principal axes and moments of inertia in atomic units:
                           1         2         3
     Eigenvalues --    52.36494 193.87307 220.04649
           X            0.99977   0.01381   0.01659
           Y           -0.01290   0.99848  -0.05365
           Z           -0.01730   0.05343   0.99842
 This molecule is an asymmetric top.
 Rotational symmetry number  1.
 Rotational temperatures (Kelvin)      1.65404     0.44676     0.39362
 Rotational constants (GHZ):          34.46468     9.30888     8.20164
 Zero-point vibrational energy     211588.4 (Joules/Mol)
                                   50.57084 (Kcal/Mol)
 Warning -- explicit consideration of   3 degrees of freedom as
           vibrations may cause significant error
 Vibrational temperatures:    363.14   393.73   612.83  1161.44  1303.04
          (Kelvin)           1539.15  1597.21  1662.05  1848.95  1983.67
                             2016.99  2057.88  2147.32  2156.59  2200.90
                             4363.66  4398.52  4471.18  4505.27  4526.37
                             5586.59

 Zero-point correction=                           0.080590 (Hartree/Particle)
 Thermal correction to Energy=                    0.084894
 Thermal correction to Enthalpy=                  0.085838
 Thermal correction to Gibbs Free Energy=         0.055179
 Sum of electronic and zero-point Energies=           -154.945709
 Sum of electronic and thermal Energies=              -154.941404
 Sum of electronic and thermal Enthalpies=            -154.940460
 Sum of electronic and thermal Free Energies=         -154.971120

                     E (Thermal)             CV                S
                      KCal/Mol        Cal/Mol-Kelvin    Cal/Mol-Kelvin
 Total                   53.272             13.492             64.528
 Electronic               0.000              0.000              0.000
 Translational            0.889              2.981             37.406
 Rotational               0.889              2.981             22.329
 Vibrational             51.494              7.530              4.794
 Vibration     1          0.664              1.759              1.714
 Vibration     2          0.676              1.722              1.573
 Vibration     3          0.788              1.414              0.872

 Optimization completed.
    -- Stationary point found.
 Normal termination of Gaussian 16 at Thu May 23 01:55:05 2019.
