 Gaussian 16, Revision A.03,
 Gaussian 16:  EM64L-G16RevA.03 25-Dec-2016

 --------------------------------------
 #p m062x/cc-pVTZ Opt=(CalcFC,ModRedun)
 --------------------------------------

 ------------------------------
 Gaussian input prepared by ASE
 ------------------------------
 Symbolic Z-matrix:
 Charge =  0 Multiplicity = 1

 SCF Done:  E(RM062X) =  -155.026293133     A.U. after   12 cycles

  Exact polarizability:   0.000   0.000   0.000   0.000   0.000   0.000
 Approx polarizability:  35.014  -0.072  33.752   0.004   0.001  31.563

 Optimization completed.
    -- Stationary point found.
 SCF Done:  E(RM062X) =  -155.024655571     A.U. after   11 cycles
 SCF Done:  E(RM062X) =  -155.025950481     A.U. after   10 cycles
 SCF Done:  E(RM062X) =  -155.025974137     A.U. after    9 cycles
 Optimization completed.
 SCF Done:  E(RM062X) =  -155.023718331     A.U. after   11 cycles
 SCF Done:  E(RM062X) =  -155.025060805     A.U. after   10 cycles
 SCF Done:  E(RM062X) =  -155.025090701     A.U. after    9 cycles
 SCF Done:  E(RM062X) =  -155.022353924     A.U. after   11 cycles
 SCF Done:  E(RM062X) =  -155.023795342     A.U. after   10 cycles
 SCF Done:  E(RM062X) =  -155.023837083     A.U. after    9 cycles
 SCF Done:  E(RM062X) =  -155.023869198     A.U. after    9 cycles
 SCF Done:  E(RM062X) =  -155.023629417     A.U. after   11 cycles
 SCF Done:  E(RM062X) =  -155.025092900     A.U. after   11 cycles
 SCF Done:  E(RM062X) =  -155.025112870     A.U. after    8 cycles
 SCF Done:  E(RM062X) =  -155.024609152     A.U. after   11 cycles
 SCF Done:  E(RM062X) =  -155.025967855     A.U. after   11 cycles
 SCF Done:  E(RM062X) =  -155.025984330     A.U. after    8 cycles
    -- Stationary point found.
 SCF Done:  E(RM062X) =  -155.024972839     A.U. after   11 cycles
 SCF Done:  E(RM062X) =  -155.026275736     A.U. after   11 cycles
 SCF Done:  E(RM062X) =  -155.026293172     A.U. after    8 cycles
 Optimization completed.
    -- Stationary point found.

                         Standard orientation:
 ---------------------------------------------------------------------
 Center     Atomic      Atomic             Coordinates (Angstroms)
 Number     Number       Type             X           Y           Z
 ---------------------------------------------------------------------
      1          8           0        1.142980   -0.394992   -0.000146
      2          6           0        0.084579    0.548364   -0.000081
      3          6           0       -1.215729   -0.221996    0.000047
      4          1           0        0.139393    1.191513    0.884387
      5          1           0        0.139480    1.191592   -0.884463
      6          1           0       -1.274931   -0.855715    0.883780
      7          1           0       -2.066491    0.458550   -0.001174
      8          1           0       -1.274057   -0.857767   -0.882236
      9          1           0        1.979665    0.073555    0.001071
 ---------------------------------------------------------------------

 The electronic state is 1-A.
 Alpha  occ. eigenvalues --  -19.61475 -10.58030 -10.52124  -1.14023  -0.84638
 Alpha  occ. eigenvalues --   -0.69645  -0.59388  -0.54095  -0.47440  -0.44610
 Alpha  occ. eigenvalues --   -0.43226  -0.39848  -0.34650
 Alpha virt. eigenvalues --    0.06502   0.09590   0.12841   0.12974   0.14884
 Alpha virt. eigenvalues --    0.17214   0.21370   0.23208   0.29059   0.30900
 Alpha virt. eigenvalues --    0.35171   0.37229   0.41317   0.42186   0.46700

 Mulliken charges:
               1
     1  O   -0.388957
     2  C   -0.006115
     3  C   -0.319971
     4  H    0.072704
     5  H    0.072707
     6  H    0.114864
     7  H    0.095034
     8  H    0.114903
     9  H    0.244831
 Sum of Mulliken charges =  -0.00000

 Dipole moment (field-independent basis, Debye):
    X=              0.2125    Y=              1.5538    Z=              0.0021  Tot=              1.5683
 Quadrupole moment (field-independent basis, Debye-Ang):
   XX=            -17.0691   YY=            -20.6931   ZZ=            -20.1712
   XY=              1.8495   XZ=              0.0050   YZ=              0.0005

 Normal termination of Gaussian 16 at Sat Aug 10 04:48:42 2019.
