 Gaussian 16, Revision A.03,
 Gaussian 16:  EM64L-G16RevA.03 25-Dec-2016

 --------------------------------------
 #p m062x/cc-pVTZ Opt=(CalcFC,ModRedun)
 --------------------------------------

 ------------------------------
 Gaussian input prepared by ASE
 ------------------------------
 Symbolic Z-matrix:
 Charge =  0 Multiplicity = 1

 SCF Done:  E(RM062X) =  -155.026293133     A.U. after   12 cycles

  Exact polarizability:   0.000   0.000   0.000   0.000   0.000   0.000
 Approx polarizability:  35.014  -0.072  33.752   0.004   0.001  31.563

 Optimization completed.
    -- Stationary point found.
 SCF Done:  E(RM062X) =  -155.024972500     A.U. after   11 cycles
 SCF Done:  E(RM062X) =  -155.026177027     A.U. after   11 cycles
 SCF Done:  E(RM062X) =  -155.026179300     A.U. after    7 cycles
 Optimization completed.
 SCF Done:  E(RM062X) =  -155.024609184     A.U. after    9 cycles
 SCF Done:  E(RM062X) =  -155.025859917     A.U. after   11 cycles
 SCF Done:  E(RM062X) =  -155.025865077     A.U. after    8 cycles
 SCF Done:  E(RM062X) =  -155.024105030     A.U. after    9 cycles
 SCF Done:  E(RM062X) =  -155.025421350     A.U. after   11 cycles
 SCF Done:  E(RM062X) =  -155.025424683     A.U. after    7 cycles
 SCF Done:  E(RM062X) =  -155.025459787     A.U. after    7 cycles
 SCF Done:  E(RM062X) =  -155.024711707     A.U. after    9 cycles
 SCF Done:  E(RM062X) =  -155.025880168     A.U. after   11 cycles
 SCF Done:  E(RM062X) =  -155.025881431     A.U. after    7 cycles
 SCF Done:  E(RM062X) =  -155.025018424     A.U. after    9 cycles
 SCF Done:  E(RM062X) =  -155.026182428     A.U. after   11 cycles
 SCF Done:  E(RM062X) =  -155.026183936     A.U. after    7 cycles
    -- Stationary point found.
 SCF Done:  E(RM062X) =  -155.025117002     A.U. after    9 cycles
 SCF Done:  E(RM062X) =  -155.026290460     A.U. after   11 cycles
 SCF Done:  E(RM062X) =  -155.026293169     A.U. after    7 cycles
 Optimization completed.
    -- Stationary point found.

                         Standard orientation:
 ---------------------------------------------------------------------
 Center     Atomic      Atomic             Coordinates (Angstroms)
 Number     Number       Type             X           Y           Z
 ---------------------------------------------------------------------
      1          8           0        1.142933   -0.395051   -0.000147
      2          6           0        0.084669    0.548375   -0.000038
      3          6           0       -1.215830   -0.221896    0.000080
      4          1           0        0.140077    1.191577    0.884318
      5          1           0        0.139644    1.191450   -0.884550
      6          1           0       -1.275394   -0.855520    0.883831
      7          1           0       -2.066679    0.458497   -0.001539
      8          1           0       -1.273866   -0.857824   -0.882120
      9          1           0        1.979724    0.073356    0.000981
 ---------------------------------------------------------------------

 The electronic state is 1-A.
 Alpha  occ. eigenvalues --  -19.61474 -10.58030 -10.52125  -1.14023  -0.84634
 Alpha  occ. eigenvalues --   -0.69647  -0.59387  -0.54094  -0.47439  -0.44612
 Alpha  occ. eigenvalues --   -0.43227  -0.39847  -0.34649
 Alpha virt. eigenvalues --    0.06501   0.09590   0.12841   0.12974   0.14884
 Alpha virt. eigenvalues --    0.17214   0.21370   0.23207   0.29061   0.30898
 Alpha virt. eigenvalues --    0.35173   0.37231   0.41320   0.42185   0.46702

 Mulliken charges:
               1
     1  O   -0.388966
     2  C   -0.006112
     3  C   -0.319997
     4  H    0.072717
     5  H    0.072686
     6  H    0.114868
     7  H    0.095057
     8  H    0.114905
     9  H    0.244843
 Sum of Mulliken charges =  -0.00000

 Dipole moment (field-independent basis, Debye):
    X=              0.2128    Y=              1.5536    Z=              0.0019  Tot=              1.5681
 Quadrupole moment (field-independent basis, Debye-Ang):
   XX=            -17.0674   YY=            -20.6937   ZZ=            -20.1713
   XY=              1.8499   XZ=              0.0049   YZ=              0.0006

 Normal termination of Gaussian 16 at Sat Aug 10 04:46:49 2019.
